 Entering Link 1 = C:\G09W\l1.exe PID=     14172.
  
 Copyright (c) 1988,1990,1992,1993,1995,1998,2003,2009, Gaussian, Inc.
                  All Rights Reserved.
  
 This is part of the Gaussian(R) 09 program.  It is based on
 the Gaussian(R) 03 system (copyright 2003, Gaussian, Inc.),
 the Gaussian(R) 98 system (copyright 1998, Gaussian, Inc.),
 the Gaussian(R) 94 system (copyright 1995, Gaussian, Inc.),
 the Gaussian 92(TM) system (copyright 1992, Gaussian, Inc.),
 the Gaussian 90(TM) system (copyright 1990, Gaussian, Inc.),
 the Gaussian 88(TM) system (copyright 1988, Gaussian, Inc.),
 the Gaussian 86(TM) system (copyright 1986, Carnegie Mellon
 University), and the Gaussian 82(TM) system (copyright 1983,
 Carnegie Mellon University). Gaussian is a federally registered
 trademark of Gaussian, Inc.
  
 This software contains proprietary and confidential information,
 including trade secrets, belonging to Gaussian, Inc.
  
 This software is provided under written license and may be
 used, copied, transmitted, or stored only in accord with that
 written license.
  
 The following legend is applicable only to US Government
 contracts under FAR:
  
                    RESTRICTED RIGHTS LEGEND
  
 Use, reproduction and disclosure by the US Government is
 subject to restrictions as set forth in subparagraphs (a)
 and (c) of the Commercial Computer Software - Restricted
 Rights clause in FAR 52.227-19.
  
 Gaussian, Inc.
 340 Quinnipiac St., Bldg. 40, Wallingford CT 06492
  
  
 ---------------------------------------------------------------
 Warning -- This program may not be used in any manner that
 competes with the business of Gaussian, Inc. or will provide
 assistance to any competitor of Gaussian, Inc.  The licensee
 of this program is prohibited from giving any competitor of
 Gaussian, Inc. access to this program.  By using this program,
 the user acknowledges that Gaussian, Inc. is engaged in the
 business of creating and licensing software in the field of
 computational chemistry and represents and warrants to the
 licensee that it is not a competitor of Gaussian, Inc. and that
 it will not use this program in any manner prohibited above.
 ---------------------------------------------------------------
  

 Cite this work as:
 Gaussian 09, Revision A.02,
 M. J. Frisch, G. W. Trucks, H. B. Schlegel, G. E. Scuseria, 
 M. A. Robb, J. R. Cheeseman, G. Scalmani, V. Barone, B. Mennucci, 
 G. A. Petersson, H. Nakatsuji, M. Caricato, X. Li, H. P. Hratchian, 
 A. F. Izmaylov, J. Bloino, G. Zheng, J. L. Sonnenberg, M. Hada, 
 M. Ehara, K. Toyota, R. Fukuda, J. Hasegawa, M. Ishida, T. Nakajima, 
 Y. Honda, O. Kitao, H. Nakai, T. Vreven, J. A. Montgomery, Jr., 
 J. E. Peralta, F. Ogliaro, M. Bearpark, J. J. Heyd, E. Brothers, 
 K. N. Kudin, V. N. Staroverov, R. Kobayashi, J. Normand, 
 K. Raghavachari, A. Rendell, J. C. Burant, S. S. Iyengar, J. Tomasi, 
 M. Cossi, N. Rega, J. M. Millam, M. Klene, J. E. Knox, J. B. Cross, 
 V. Bakken, C. Adamo, J. Jaramillo, R. Gomperts, R. E. Stratmann, 
 O. Yazyev, A. J. Austin, R. Cammi, C. Pomelli, J. W. Ochterski, 
 R. L. Martin, K. Morokuma, V. G. Zakrzewski, G. A. Voth, 
 P. Salvador, J. J. Dannenberg, S. Dapprich, A. D. Daniels, 
 O. Farkas, J. B. Foresman, J. V. Ortiz, J. Cioslowski, 
 and D. J. Fox, Gaussian, Inc., Wallingford CT, 2009.
 
 ******************************************
 Gaussian 09:  IA32W-G09RevA.02 11-Jun-2009
                03-Feb-2015 
 ******************************************
 %chk=J:\che513\mediumProject\COopt_freq.chk
 ----------------------------------------
 # opt freq hf/6-31g(d) geom=connectivity
 ----------------------------------------
 1/18=20,19=15,38=1,57=2/1,3;
 2/9=110,12=2,17=6,18=5,40=1/2;
 3/5=1,6=6,7=1,11=9,16=1,25=1,30=1,71=1/1,2,3;
 4//1;
 5/5=2,38=5/2;
 6/7=2,8=2,9=2,10=2,28=1/1;
 7//1,2,3,16;
 1/18=20,19=15/3(2);
 2/9=110/2;
 99//99;
 2/9=110/2;
 3/5=1,6=6,7=1,11=9,16=1,25=1,30=1,71=1/1,2,3;
 4/5=5,16=3/1;
 5/5=2,38=5/2;
 7//1,2,3,16;
 1/18=20,19=15/3(-5);
 2/9=110/2;
 6/7=2,8=2,9=2,10=2,19=2,28=1/1;
 99/9=1/99;
 -------------------
 Title Card Required
 -------------------
 Symbolic Z-matrix:
 Charge =  0 Multiplicity = 1
 C                     0.        0.       -0.63644 
 O                     0.        0.        0.47733 
 

 GradGradGradGradGradGradGradGradGradGradGradGradGradGradGradGradGradGrad
 Berny optimization.
 Initialization pass.
                           ----------------------------
                           !    Initial Parameters    !
                           ! (Angstroms and Degrees)  !
 --------------------------                            --------------------------
 ! Name  Definition              Value          Derivative Info.                !
 --------------------------------------------------------------------------------
 ! R1    R(1,2)                  1.1138         estimate D2E/DX2                !
 --------------------------------------------------------------------------------
 Trust Radius=3.00D-01 FncErr=1.00D-07 GrdErr=1.00D-07
 Number of steps in this run=  20 maximum allowed number of steps= 100.
 GradGradGradGradGradGradGradGradGradGradGradGradGradGradGradGradGradGrad

                          Input orientation:                          
 ---------------------------------------------------------------------
 Center     Atomic      Atomic             Coordinates (Angstroms)
 Number     Number       Type             X           Y           Z
 ---------------------------------------------------------------------
      1          6           0        0.000000    0.000000   -0.636443
      2          8           0        0.000000    0.000000    0.477332
 ---------------------------------------------------------------------
 Stoichiometry    CO
 Framework group  C*V[C*(CO)]
 Deg. of freedom     1
 Full point group                 C*V     NOp   4
 Largest Abelian subgroup         C2V     NOp   4
 Largest concise Abelian subgroup C1      NOp   1
                         Standard orientation:                         
 ---------------------------------------------------------------------
 Center     Atomic      Atomic             Coordinates (Angstroms)
 Number     Number       Type             X           Y           Z
 ---------------------------------------------------------------------
      1          6           0        0.000000    0.000000   -0.636443
      2          8           0        0.000000    0.000000    0.477332
 ---------------------------------------------------------------------
 Rotational constants (GHZ):      0.0000000     59.4207652     59.4207652
 Standard basis: 6-31G(d) (6D, 7F)
 There are    16 symmetry adapted basis functions of A1  symmetry.
 There are     2 symmetry adapted basis functions of A2  symmetry.
 There are     6 symmetry adapted basis functions of B1  symmetry.
 There are     6 symmetry adapted basis functions of B2  symmetry.
 Integral buffers will be    262144 words long.
 Raffenetti 1 integral format.
 Two-electron integral symmetry is turned on.
    30 basis functions,    56 primitive gaussians,    30 cartesian basis functions
     7 alpha electrons        7 beta electrons
       nuclear repulsion energy        22.8057785570 Hartrees.
 NAtoms=    2 NActive=    2 NUniq=    2 SFac= 7.50D-01 NAtFMM=   80 NAOKFM=F Big=F
 One-electron integrals computed using PRISM.
 NBasis=    30 RedAO= T  NBF=    16     2     6     6
 NBsUse=    30 1.00D-06 NBFU=    16     2     6     6
 Harris functional with IExCor=  205 diagonalized for initial guess.
 ExpMin= 1.69D-01 ExpMax= 5.48D+03 ExpMxC= 8.25D+02 IAcc=1 IRadAn=         1 AccDes= 0.00D+00
 HarFok:  IExCor=  205 AccDes= 0.00D+00 IRadAn=         1 IDoV= 1
 ScaDFX=  1.000000  1.000000  1.000000  1.000000
 FoFCou: FMM=F IPFlag=           0 FMFlag=      100000 FMFlg1=           0
         NFxFlg=           0 DoJE=T BraDBF=F KetDBF=T FulRan=T
         Omega=  0.000000  0.000000  1.000000  0.000000  0.000000 ICntrl=     500 IOpCl=  0
         NMat0=    1 NMatS0=    1 NMatT0=    0 NMatD0=    1 NMtDS0=    0 NMtDT0=    0
         I1Cent=           4 NGrid=           0.
 Petite list used in FoFCou.
 Initial guess orbital symmetries:
       Occupied  (SG) (SG) (SG) (SG) (PI) (PI) (SG)
       Virtual   (PI) (PI) (SG) (PI) (PI) (SG) (SG) (SG) (PI) (PI)
                 (SG) (DLTA) (DLTA) (PI) (PI) (DLTA) (DLTA) (SG)
                 (PI) (PI) (SG) (SG) (SG)
 The electronic state of the initial guess is 1-SG.
 Requested convergence on RMS density matrix=1.00D-08 within 128 cycles.
 Requested convergence on MAX density matrix=1.00D-06.
 Requested convergence on             energy=1.00D-06.
 No special actions if energy rises.
 Keep R1 ints in memory in canonical form, NReq=949573.
 SCF Done:  E(RHF) =  -112.737876953     A.U. after    9 cycles
             Convg  =    0.7133D-08             -V/T =  2.0024

 **********************************************************************

            Population analysis using the SCF density.

 **********************************************************************

 Orbital symmetries:
       Occupied  (SG) (SG) (SG) (SG) (PI) (PI) (SG)
       Virtual   (PI) (PI) (SG) (PI) (PI) (SG) (SG) (SG) (PI) (PI)
                 (SG) (DLTA) (DLTA) (PI) (PI) (DLTA) (DLTA) (SG)
                 (PI) (PI) (SG) (SG) (SG)
 The electronic state is 1-SG.
 Alpha  occ. eigenvalues --  -20.67496 -11.35522  -1.52929  -0.79775  -0.63926
 Alpha  occ. eigenvalues --   -0.63926  -0.54591
 Alpha virt. eigenvalues --    0.16796   0.16796   0.40949   0.73344   0.73344
 Alpha virt. eigenvalues --    0.75945   0.99691   1.11965   1.20676   1.20676
 Alpha virt. eigenvalues --    1.61515   1.74460   1.74460   1.85712   1.85712
 Alpha virt. eigenvalues --    2.27029   2.27029   2.80573   2.96915   2.96915
 Alpha virt. eigenvalues --    3.37914   4.11319   4.30660
          Condensed to atoms (all electrons):
              1          2
     1  C    5.107498   0.624208
     2  O    0.624208   7.644086
 Mulliken atomic charges:
              1
     1  C    0.268294
     2  O   -0.268294
 Sum of Mulliken atomic charges =   0.00000
 Mulliken charges with hydrogens summed into heavy atoms:
              1
     1  C    0.268294
     2  O   -0.268294
 Sum of Mulliken charges with hydrogens summed into heavy atoms =   0.00000
 Electronic spatial extent (au):  <R**2>=             38.8690
 Charge=              0.0000 electrons
 Dipole moment (field-independent basis, Debye):
    X=              0.0000    Y=              0.0000    Z=             -0.2638  Tot=              0.2638
 Quadrupole moment (field-independent basis, Debye-Ang):
   XX=             -9.8866   YY=             -9.8866   ZZ=            -12.0782
   XY=              0.0000   XZ=              0.0000   YZ=              0.0000
 Traceless Quadrupole moment (field-independent basis, Debye-Ang):
   XX=              0.7305   YY=              0.7305   ZZ=             -1.4611
   XY=              0.0000   XZ=              0.0000   YZ=              0.0000
 Octapole moment (field-independent basis, Debye-Ang**2):
  XXX=              0.0000  YYY=              0.0000  ZZZ=              5.6410  XYY=              0.0000
  XXY=              0.0000  XXZ=              0.8750  XZZ=              0.0000  YZZ=              0.0000
  YYZ=              0.8750  XYZ=              0.0000
 Hexadecapole moment (field-independent basis, Debye-Ang**3):
 XXXX=             -7.8184 YYYY=             -7.8184 ZZZZ=            -34.1676 XXXY=              0.0000
 XXXZ=              0.0000 YYYX=              0.0000 YYYZ=              0.0000 ZZZX=              0.0000
 ZZZY=              0.0000 XXYY=             -2.6061 XXZZ=             -6.3937 YYZZ=             -6.3937
 XXYZ=              0.0000 YYXZ=              0.0000 ZZXY=              0.0000
 N-N= 2.280577855700D+01 E-N=-3.111907789563D+02  KE= 1.124667906030D+02
 Symmetry A1   KE= 1.045232370544D+02
 Symmetry A2   KE=-7.109927364211D-51
 Symmetry B1   KE= 3.971776774289D+00
 Symmetry B2   KE= 3.971776774289D+00
 Calling FoFJK, ICntrl=      2127 FMM=F ISym2X=1 I1Cent= 0 IOpClX= 0 NMat=1 NMatS=1 NMatT=0.
 ***** Axes restored to original set *****
 -------------------------------------------------------------------
 Center     Atomic                   Forces (Hartrees/Bohr)
 Number     Number              X              Y              Z
 -------------------------------------------------------------------
      1        6           0.000000000    0.000000000    0.000000408
      2        8           0.000000000    0.000000000   -0.000000408
 -------------------------------------------------------------------
 Cartesian Forces:  Max     0.000000408 RMS     0.000000236

 GradGradGradGradGradGradGradGradGradGradGradGradGradGradGradGradGradGrad
 Berny optimization.
 Internal  Forces:  Max     0.000000408 RMS     0.000000408
 Search for a local minimum.
 Step number   1 out of a maximum of   20
 All quantities printed in internal units (Hartrees-Bohrs-Radians)
 Mixed Optimization -- En-DIIS/RFO-DIIS
 Second derivative matrix not updated -- first step.
 The second derivative matrix:
                          R1
           R1           1.63529
     Eigenvalues ---    1.63529
 RFO step:  Lambda=-1.01696429D-13 EMin= 1.63528652D+00
 Linear search not attempted -- first point.
 Iteration  1 RMS(Cart)=  0.00000018 RMS(Int)=  0.00000000
 ClnCor:  largest displacement from symmetrization is 0.00D+00 for atom     0.
 Variable       Old X    -DE/DX   Delta X   Delta X   Delta X     New X
                                 (Linear)    (Quad)   (Total)
    R1        2.10473   0.00000   0.00000   0.00000   0.00000   2.10473
         Item               Value     Threshold  Converged?
 Maximum Force            0.000000     0.000450     YES
 RMS     Force            0.000000     0.000300     YES
 Maximum Displacement     0.000000     0.001800     YES
 RMS     Displacement     0.000000     0.001200     YES
 Predicted change in Energy=-5.087679D-14
 Optimization completed.
    -- Stationary point found.
                           ----------------------------
                           !   Optimized Parameters   !
                           ! (Angstroms and Degrees)  !
 --------------------------                            --------------------------
 ! Name  Definition              Value          Derivative Info.                !
 --------------------------------------------------------------------------------
 ! R1    R(1,2)                  1.1138         -DE/DX =    0.0                 !
 --------------------------------------------------------------------------------
 GradGradGradGradGradGradGradGradGradGradGradGradGradGradGradGradGradGrad

                          Input orientation:                          
 ---------------------------------------------------------------------
 Center     Atomic      Atomic             Coordinates (Angstroms)
 Number     Number       Type             X           Y           Z
 ---------------------------------------------------------------------
      1          6           0        0.000000    0.000000   -0.636443
      2          8           0        0.000000    0.000000    0.477332
 ---------------------------------------------------------------------
 Stoichiometry    CO
 Framework group  C*V[C*(CO)]
 Deg. of freedom     1
 Full point group                 C*V     NOp   4
 Largest Abelian subgroup         C2V     NOp   4
 Largest concise Abelian subgroup C1      NOp   1
                         Standard orientation:                         
 ---------------------------------------------------------------------
 Center     Atomic      Atomic             Coordinates (Angstroms)
 Number     Number       Type             X           Y           Z
 ---------------------------------------------------------------------
      1          6           0        0.000000    0.000000   -0.636443
      2          8           0        0.000000    0.000000    0.477332
 ---------------------------------------------------------------------
 Rotational constants (GHZ):      0.0000000     59.4207652     59.4207652
 1|1|UNPC-CB217-2014-05|FOpt|RHF|6-31G(d)|C1O1|KE7KTO|03-Feb-2015|0||# 
 opt freq hf/6-31g(d) geom=connectivity||Title Card Required||0,1|C,0.,
 0.,-0.636443|O,0.,0.,0.477332||Version=IA32W-G09RevA.02|State=1-SG|HF=
 -112.737877|RMSD=7.133e-009|RMSF=2.355e-007|Dipole=0.,0.,-0.1037798|Qu
 adrupole=0.5431386,0.5431386,-1.0862772,0.,0.,0.|PG=C*V [C*(C1O1)]||@


 WE HAVE LEFT UNDONE THOSE THINGS WHICH WE OUGHT TO HAVE DONE,
 AND WE HAVE DONE THOSE THINGS WHICH WE OUGHT NOT TO HAVE DONE.
                   BOOK OF COMMON PRAYER                      
 Job cpu time:  0 days  0 hours  0 minutes  3.0 seconds.
 File lengths (MBytes):  RWF=      5 Int=      0 D2E=      0 Chk=      1 Scr=      1
 Normal termination of Gaussian 09 at Tue Feb 03 18:12:05 2015.
 Link1:  Proceeding to internal job step number  2.
 -----------------------------------------------------------------
 #N Geom=AllCheck Guess=TCheck SCRF=Check GenChk RHF/6-31G(d) Freq
 -----------------------------------------------------------------
 1/10=4,29=7,30=1,38=1,40=1/1,3;
 2/12=2,40=1/2;
 3/5=1,6=6,7=1,11=1,14=-4,16=1,25=1,30=1,70=2,71=2,116=1/1,2,3;
 4/5=101/1;
 5/5=2,98=1/2;
 8/6=4,10=90,11=11/1;
 10/13=10,15=4/2;
 11/6=3,8=1,9=11,15=111,16=1/1,2,10;
 10/6=1/2;
 6/7=2,8=2,9=2,10=2,18=1,28=1/1;
 7/8=1,10=1,25=1/1,2,3,16;
 1/10=4,30=1/3;
 99//99;
 -------------------
 Title Card Required
 -------------------
 Redundant internal coordinates taken from checkpoint file:
 J:\che513\mediumProject\COopt_freq.chk
 Charge =  0 Multiplicity = 1
 C,0,0.,0.,-0.636443
 O,0,0.,0.,0.477332
 Recover connectivity data from disk.

 GradGradGradGradGradGradGradGradGradGradGradGradGradGradGradGradGradGrad
 Berny optimization.
 Initialization pass.
                           ----------------------------
                           !    Initial Parameters    !
                           ! (Angstroms and Degrees)  !
 --------------------------                            --------------------------
 ! Name  Definition              Value          Derivative Info.                !
 --------------------------------------------------------------------------------
 ! R1    R(1,2)                  1.1138         calculate D2E/DX2 analytically  !
 --------------------------------------------------------------------------------
 Trust Radius=3.00D-01 FncErr=1.00D-07 GrdErr=1.00D-07
 Number of steps in this run=   2 maximum allowed number of steps=   2.
 GradGradGradGradGradGradGradGradGradGradGradGradGradGradGradGradGradGrad

                          Input orientation:                          
 ---------------------------------------------------------------------
 Center     Atomic      Atomic             Coordinates (Angstroms)
 Number     Number       Type             X           Y           Z
 ---------------------------------------------------------------------
      1          6           0        0.000000    0.000000   -0.636443
      2          8           0        0.000000    0.000000    0.477332
 ---------------------------------------------------------------------
 Stoichiometry    CO
 Framework group  C*V[C*(CO)]
 Deg. of freedom     1
 Full point group                 C*V     NOp   4
 Largest Abelian subgroup         C2V     NOp   4
 Largest concise Abelian subgroup C1      NOp   1
                         Standard orientation:                         
 ---------------------------------------------------------------------
 Center     Atomic      Atomic             Coordinates (Angstroms)
 Number     Number       Type             X           Y           Z
 ---------------------------------------------------------------------
      1          6           0        0.000000    0.000000   -0.636443
      2          8           0        0.000000    0.000000    0.477332
 ---------------------------------------------------------------------
 Rotational constants (GHZ):      0.0000000     59.4207652     59.4207652
 Standard basis: 6-31G(d) (6D, 7F)
 There are    16 symmetry adapted basis functions of A1  symmetry.
 There are     2 symmetry adapted basis functions of A2  symmetry.
 There are     6 symmetry adapted basis functions of B1  symmetry.
 There are     6 symmetry adapted basis functions of B2  symmetry.
 Integral buffers will be    262144 words long.
 Raffenetti 1 integral format.
 Two-electron integral symmetry is turned on.
    30 basis functions,    56 primitive gaussians,    30 cartesian basis functions
     7 alpha electrons        7 beta electrons
       nuclear repulsion energy        22.8057785570 Hartrees.
 NAtoms=    2 NActive=    2 NUniq=    2 SFac= 7.50D-01 NAtFMM=   80 NAOKFM=F Big=F
 One-electron integrals computed using PRISM.
 NBasis=    30 RedAO= T  NBF=    16     2     6     6
 NBsUse=    30 1.00D-06 NBFU=    16     2     6     6
 Initial guess read from the checkpoint file:  J:\che513\mediumProject\COopt_freq
 .chk
 B after Tr=     0.000000    0.000000    0.000000
         Rot=    1.000000    0.000000    0.000000    0.000000 Ang=   0.00 deg.
 Initial guess orbital symmetries:
       Occupied  (SG) (SG) (SG) (SG) (PI) (PI) (SG)
       Virtual   (PI) (PI) (SG) (PI) (PI) (SG) (SG) (SG) (PI) (PI)
                 (SG) (DLTA) (DLTA) (PI) (PI) (DLTA) (DLTA) (SG)
                 (PI) (PI) (SG) (SG) (SG)
 Requested convergence on RMS density matrix=1.00D-08 within 128 cycles.
 Requested convergence on MAX density matrix=1.00D-06.
 Requested convergence on             energy=1.00D-06.
 No special actions if energy rises.
 Keep R1 ints in memory in canonical form, NReq=949573.
 SCF Done:  E(RHF) =  -112.737876953     A.U. after    1 cycles
             Convg  =    0.9770D-09             -V/T =  2.0024
 Range of M.O.s used for correlation:     1    30
 NBasis=    30 NAE=     7 NBE=     7 NFC=     0 NFV=     0
 NROrb=     30 NOA=     7 NOB=     7 NVA=    23 NVB=    23
          Differentiating once with respect to electric field.
                with respect to dipole field.
          Electric field/nuclear overlap derivatives assumed to be zero.
          Keep R1 ints in memory in canonical form, NReq=928671.
          There are     3 degrees of freedom in the 1st order CPHF.  IDoFFX=0.
      3 vectors produced by pass  0 Test12= 5.37D-15 3.33D-08 XBig12= 3.33D+00 1.10D+00.
 AX will form     3 AO Fock derivatives at one time.
      3 vectors produced by pass  1 Test12= 5.37D-15 3.33D-08 XBig12= 4.99D-01 3.31D-01.
      3 vectors produced by pass  2 Test12= 5.37D-15 3.33D-08 XBig12= 1.62D-02 6.56D-02.
      3 vectors produced by pass  3 Test12= 5.37D-15 3.33D-08 XBig12= 7.41D-04 1.46D-02.
      3 vectors produced by pass  4 Test12= 5.37D-15 3.33D-08 XBig12= 1.28D-05 1.46D-03.
      3 vectors produced by pass  5 Test12= 5.37D-15 3.33D-08 XBig12= 2.55D-07 1.75D-04.
      3 vectors produced by pass  6 Test12= 5.37D-15 3.33D-08 XBig12= 7.89D-10 1.18D-05.
      3 vectors produced by pass  7 Test12= 5.37D-15 3.33D-08 XBig12= 1.05D-11 1.05D-06.
      1 vectors produced by pass  8 Test12= 5.37D-15 3.33D-08 XBig12= 6.77D-14 1.21D-07.
 Inverted reduced A of dimension    25 with in-core refinement.
 End of Minotr Frequency-dependent properties file   721 does not exist.
 End of Minotr Frequency-dependent properties file   722 does not exist.
 Symmetrizing basis deriv contribution to polar:
 IMax=3 JMax=2 DiffMx= 0.00D+00
 G2DrvN: will do     3 centers at a time, making    1 passes doing MaxLOS=2.
 Calling FoFCou, ICntrl=  3107 FMM=F I1Cent=   0 AccDes= 0.00D+00.
 FoFDir/FoFCou used for L=0 through L=2.
 End of G2Drv Frequency-dependent properties file   721 does not exist.
 End of G2Drv Frequency-dependent properties file   722 does not exist.
          IDoAtm=11
          Differentiating once with respect to electric field.
                with respect to dipole field.
          Differentiating once with respect to nuclear coordinates.
          Keep R1 ints in memory in canonical form, NReq=928695.
          There are     9 degrees of freedom in the 1st order CPHF.  IDoFFX=5.
 Will reuse    3 saved solutions.
      3 vectors produced by pass  0 Test12= 1.79D-15 1.11D-08 XBig12= 5.98D-02 1.13D-01.
 AX will form     3 AO Fock derivatives at one time.
      3 vectors produced by pass  1 Test12= 1.79D-15 1.11D-08 XBig12= 6.57D-03 3.62D-02.
      3 vectors produced by pass  2 Test12= 1.79D-15 1.11D-08 XBig12= 1.17D-03 2.02D-02.
      3 vectors produced by pass  3 Test12= 1.79D-15 1.11D-08 XBig12= 2.21D-05 1.77D-03.
      3 vectors produced by pass  4 Test12= 1.79D-15 1.11D-08 XBig12= 3.84D-07 2.79D-04.
      3 vectors produced by pass  5 Test12= 1.79D-15 1.11D-08 XBig12= 3.35D-09 2.02D-05.
      3 vectors produced by pass  6 Test12= 1.79D-15 1.11D-08 XBig12= 3.76D-11 2.40D-06.
      3 vectors produced by pass  7 Test12= 1.79D-15 1.11D-08 XBig12= 3.40D-13 2.35D-07.
      1 vectors produced by pass  8 Test12= 1.79D-15 1.11D-08 XBig12= 1.00D-15 1.56D-08.
 Inverted reduced A of dimension    25 with in-core refinement.
 Isotropic polarizability for W=    0.000000        9.16 Bohr**3.
 End of Minotr Frequency-dependent properties file   721 does not exist.
 End of Minotr Frequency-dependent properties file   722 does not exist.

 **********************************************************************

            Population analysis using the SCF density.

 **********************************************************************

 Orbital symmetries:
       Occupied  (SG) (SG) (SG) (SG) (PI) (PI) (SG)
       Virtual   (PI) (PI) (SG) (PI) (PI) (SG) (SG) (SG) (PI) (PI)
                 (SG) (DLTA) (DLTA) (PI) (PI) (DLTA) (DLTA) (SG)
                 (PI) (PI) (SG) (SG) (SG)
 The electronic state is 1-SG.
 Alpha  occ. eigenvalues --  -20.67496 -11.35522  -1.52929  -0.79775  -0.63926
 Alpha  occ. eigenvalues --   -0.63926  -0.54591
 Alpha virt. eigenvalues --    0.16796   0.16796   0.40949   0.73344   0.73344
 Alpha virt. eigenvalues --    0.75945   0.99691   1.11965   1.20676   1.20676
 Alpha virt. eigenvalues --    1.61515   1.74460   1.74460   1.85712   1.85712
 Alpha virt. eigenvalues --    2.27029   2.27029   2.80573   2.96915   2.96915
 Alpha virt. eigenvalues --    3.37914   4.11319   4.30660
          Condensed to atoms (all electrons):
              1          2
     1  C    5.107498   0.624208
     2  O    0.624208   7.644086
 Mulliken atomic charges:
              1
     1  C    0.268294
     2  O   -0.268294
 Sum of Mulliken atomic charges =   0.00000
 Mulliken charges with hydrogens summed into heavy atoms:
              1
     1  C    0.268294
     2  O   -0.268294
 Sum of Mulliken charges with hydrogens summed into heavy atoms =   0.00000
 APT atomic charges:
              1
     1  C    0.361144
     2  O   -0.361144
 Sum of APT charges=   0.00000
 APT Atomic charges with hydrogens summed into heavy atoms:
              1
     1  C    0.361144
     2  O   -0.361144
 Sum of APT charges=   0.00000
 Electronic spatial extent (au):  <R**2>=             38.8690
 Charge=              0.0000 electrons
 Dipole moment (field-independent basis, Debye):
    X=              0.0000    Y=              0.0000    Z=             -0.2638  Tot=              0.2638
 Quadrupole moment (field-independent basis, Debye-Ang):
   XX=             -9.8866   YY=             -9.8866   ZZ=            -12.0782
   XY=              0.0000   XZ=              0.0000   YZ=              0.0000
 Traceless Quadrupole moment (field-independent basis, Debye-Ang):
   XX=              0.7305   YY=              0.7305   ZZ=             -1.4611
   XY=              0.0000   XZ=              0.0000   YZ=              0.0000
 Octapole moment (field-independent basis, Debye-Ang**2):
  XXX=              0.0000  YYY=              0.0000  ZZZ=              5.6410  XYY=              0.0000
  XXY=              0.0000  XXZ=              0.8750  XZZ=              0.0000  YZZ=              0.0000
  YYZ=              0.8750  XYZ=              0.0000
 Hexadecapole moment (field-independent basis, Debye-Ang**3):
 XXXX=             -7.8184 YYYY=             -7.8184 ZZZZ=            -34.1676 XXXY=              0.0000
 XXXZ=              0.0000 YYYX=              0.0000 YYYZ=              0.0000 ZZZX=              0.0000
 ZZZY=              0.0000 XXYY=             -2.6061 XXZZ=             -6.3937 YYZZ=             -6.3937
 XXYZ=              0.0000 YYXZ=              0.0000 ZZXY=              0.0000
 N-N= 2.280577855700D+01 E-N=-3.111907790594D+02  KE= 1.124667906573D+02
 Symmetry A1   KE= 1.045232370742D+02
 Symmetry A2   KE=-8.485722558244D-51
 Symmetry B1   KE= 3.971776791591D+00
 Symmetry B2   KE= 3.971776791591D+00
  Exact polarizability:   7.749   0.000   7.749   0.000   0.000  11.988
 Approx polarizability:   6.955   0.000   6.955   0.000   0.000  12.340
 Calling FoFJK, ICntrl=    100127 FMM=F ISym2X=1 I1Cent= 0 IOpClX= 0 NMat=1 NMatS=1 NMatT=0.
 Full mass-weighted force constant matrix:
 Low frequencies ---    0.0011    0.0011    0.0011    0.8576    0.8576 2439.0445
 Diagonal vibrational polarizability:
        0.0000000       0.0000000       0.6238372
 Diagonal vibrational hyperpolarizability:
        0.0000000       0.0000000      -5.7369898
 Harmonic frequencies (cm**-1), IR intensities (KM/Mole), Raman scattering
 activities (A**4/AMU), depolarization ratios for plane and unpolarized
 incident light, reduced masses (AMU), force constants (mDyne/A),
 and normal coordinates:
                     1
                    SG
 Frequencies --  2439.0445
 Red. masses --    13.4388
 Frc consts  --    47.1030
 IR Inten    --   137.9042
 Raman Activ --    11.7877
 Depolar (P) --     0.2593
 Depolar (U) --     0.4118
  Atom  AN      X      Y      Z
     1   6     0.00   0.00   0.80
     2   8     0.00   0.00  -0.60

 -------------------
 - Thermochemistry -
 -------------------
 Temperature   298.150 Kelvin.  Pressure   1.00000 Atm.
 Atom     1 has atomic number  6 and mass  12.00000
 Atom     2 has atomic number  8 and mass  15.99491
 Molecular mass:    27.99491 amu.
 Principal axes and moments of inertia in atomic units:
                           1         2         3
     Eigenvalues --     0.00000  30.37223  30.37223
           X            0.00000   0.00000   1.00000
           Y            0.00000   1.00000   0.00000
           Z            1.00000   0.00000   0.00000
 This molecule is a prolate symmetric top.
 Rotational symmetry number  1.
 Rotational temperature (Kelvin)      2.85174
 Rotational constant (GHZ):          59.420765
 Zero-point vibrational energy      14588.7 (Joules/Mol)
                                    3.48679 (Kcal/Mol)
 Vibrational temperatures:   3509.24
          (Kelvin)
 
 Zero-point correction=                           0.005557 (Hartree/Particle)
 Thermal correction to Energy=                    0.007917
 Thermal correction to Enthalpy=                  0.008861
 Thermal correction to Gibbs Free Energy=        -0.013541
 Sum of electronic and zero-point Energies=           -112.732320
 Sum of electronic and thermal Energies=              -112.729960
 Sum of electronic and thermal Enthalpies=            -112.729016
 Sum of electronic and thermal Free Energies=         -112.751418
 
                     E (Thermal)             CV                S
                      KCal/Mol        Cal/Mol-Kelvin    Cal/Mol-Kelvin
 Total                    4.968              4.970             47.150
 Electronic               0.000              0.000              0.000
 Translational            0.889              2.981             35.923
 Rotational               0.592              1.987             11.227
 Vibrational              3.487              0.002              0.000
                       Q            Log10(Q)             Ln(Q)
 Total Bot       0.169266D+07          6.228570         14.341814
 Total V=0       0.608698D+09          8.784402         20.226832
 Vib (Bot)       0.278082D-02         -2.555828         -5.885011
 Vib (V=0)       0.100001D+01          0.000003          0.000008
 Electronic      0.100000D+01          0.000000          0.000000
 Translational   0.582202D+07          6.765074         15.577158
 Rotational      0.104550D+03          2.019324          4.649666
 ***** Axes restored to original set *****
 -------------------------------------------------------------------
 Center     Atomic                   Forces (Hartrees/Bohr)
 Number     Number              X              Y              Z
 -------------------------------------------------------------------
      1        6           0.000000000    0.000000000    0.000000397
      2        8           0.000000000    0.000000000   -0.000000397
 -------------------------------------------------------------------
 Cartesian Forces:  Max     0.000000397 RMS     0.000000229

 GradGradGradGradGradGradGradGradGradGradGradGradGradGradGradGradGradGrad
 Berny optimization.
 Internal  Forces:  Max     0.000000397 RMS     0.000000397
 Search for a local minimum.
 Step number   1 out of a maximum of    2
 All quantities printed in internal units (Hartrees-Bohrs-Radians)
 Second derivative matrix not updated -- analytic derivatives used.
 The second derivative matrix:
                          R1
           R1           1.54353
     Eigenvalues ---    1.54353
 Angle between quadratic step and forces=  90.00 degrees.
 Linear search not attempted -- first point.
 Iteration  1 RMS(Cart)=  0.00000018 RMS(Int)=  0.00000000
 ClnCor:  largest displacement from symmetrization is 0.00D+00 for atom     0.
 Variable       Old X    -DE/DX   Delta X   Delta X   Delta X     New X
                                 (Linear)    (Quad)   (Total)
    R1        2.10473   0.00000   0.00000   0.00000   0.00000   2.10473
         Item               Value     Threshold  Converged?
 Maximum Force            0.000000     0.000450     YES
 RMS     Force            0.000000     0.000300     YES
 Maximum Displacement     0.000000     0.001800     YES
 RMS     Displacement     0.000000     0.001200     YES
 Predicted change in Energy=-5.104764D-14
 Optimization completed.
    -- Stationary point found.
                           ----------------------------
                           !   Optimized Parameters   !
                           ! (Angstroms and Degrees)  !
 --------------------------                            --------------------------
 ! Name  Definition              Value          Derivative Info.                !
 --------------------------------------------------------------------------------
 ! R1    R(1,2)                  1.1138         -DE/DX =    0.0                 !
 --------------------------------------------------------------------------------
 GradGradGradGradGradGradGradGradGradGradGradGradGradGradGradGradGradGrad

 1|1|UNPC-CB217-2014-05|Freq|RHF|6-31G(d)|C1O1|KE7KTO|03-Feb-2015|0||#N
  Geom=AllCheck Guess=TCheck SCRF=Check GenChk RHF/6-31G(d) Freq||Title
  Card Required||0,1|C,0.,0.,-0.636443|O,0.,0.,0.477332||Version=IA32W-
 G09RevA.02|State=1-SG|HF=-112.737877|RMSD=9.770e-010|RMSF=2.292e-007|Z
 eroPoint=0.0055566|Thermal=0.0079171|Dipole=0.,0.,-0.1037798|DipoleDer
 iv=0.0493079,0.,0.,0.,0.0493079,0.,0.,0.,0.9848162,-0.0493079,0.,0.,0.
 ,-0.0493079,0.,0.,0.,-0.9848162|Polar=7.7489648,0.,7.7489648,0.,0.,11.
 9882295|PolarDeriv=0.,0.,0.,-2.0141608,0.,0.,0.,0.,0.,0.,-2.0141608,0.
 ,-0.6459401,0.,-0.6459401,0.,0.,-9.0566587,0.,0.,0.,2.0141608,0.,0.,0.
 ,0.,0.,0.,2.0141608,0.,0.6459401,0.,0.6459401,0.,0.,9.0566587|HyperPol
 ar=0.,0.,0.,0.,3.1850133,0.,3.1850133,0.,0.,-19.434854|PG=C*V [C*(C1O1
 )]|NImag=0||0.00000019,0.,0.00000019,0.,0.,1.54352948,-0.00000019,0.,0
 .,0.00000019,0.,-0.00000019,0.,0.,0.00000019,0.,0.,-1.54352948,0.,0.,1
 .54352948||0.,0.,-0.00000040,0.,0.,0.00000040|||@


 WE HAVE LEFT UNDONE THOSE THINGS WHICH WE OUGHT TO HAVE DONE,
 AND WE HAVE DONE THOSE THINGS WHICH WE OUGHT NOT TO HAVE DONE.
                   BOOK OF COMMON PRAYER                      
 Job cpu time:  0 days  0 hours  0 minutes  6.0 seconds.
 File lengths (MBytes):  RWF=      5 Int=      0 D2E=      0 Chk=      1 Scr=      1
 Normal termination of Gaussian 09 at Tue Feb 03 18:12:11 2015.
