 Entering Link 1 = C:\G09W\l1.exe PID=     12816.
  
 Copyright (c) 1988,1990,1992,1993,1995,1998,2003,2009, Gaussian, Inc.
                  All Rights Reserved.
  
 This is part of the Gaussian(R) 09 program.  It is based on
 the Gaussian(R) 03 system (copyright 2003, Gaussian, Inc.),
 the Gaussian(R) 98 system (copyright 1998, Gaussian, Inc.),
 the Gaussian(R) 94 system (copyright 1995, Gaussian, Inc.),
 the Gaussian 92(TM) system (copyright 1992, Gaussian, Inc.),
 the Gaussian 90(TM) system (copyright 1990, Gaussian, Inc.),
 the Gaussian 88(TM) system (copyright 1988, Gaussian, Inc.),
 the Gaussian 86(TM) system (copyright 1986, Carnegie Mellon
 University), and the Gaussian 82(TM) system (copyright 1983,
 Carnegie Mellon University). Gaussian is a federally registered
 trademark of Gaussian, Inc.
  
 This software contains proprietary and confidential information,
 including trade secrets, belonging to Gaussian, Inc.
  
 This software is provided under written license and may be
 used, copied, transmitted, or stored only in accord with that
 written license.
  
 The following legend is applicable only to US Government
 contracts under FAR:
  
                    RESTRICTED RIGHTS LEGEND
  
 Use, reproduction and disclosure by the US Government is
 subject to restrictions as set forth in subparagraphs (a)
 and (c) of the Commercial Computer Software - Restricted
 Rights clause in FAR 52.227-19.
  
 Gaussian, Inc.
 340 Quinnipiac St., Bldg. 40, Wallingford CT 06492
  
  
 ---------------------------------------------------------------
 Warning -- This program may not be used in any manner that
 competes with the business of Gaussian, Inc. or will provide
 assistance to any competitor of Gaussian, Inc.  The licensee
 of this program is prohibited from giving any competitor of
 Gaussian, Inc. access to this program.  By using this program,
 the user acknowledges that Gaussian, Inc. is engaged in the
 business of creating and licensing software in the field of
 computational chemistry and represents and warrants to the
 licensee that it is not a competitor of Gaussian, Inc. and that
 it will not use this program in any manner prohibited above.
 ---------------------------------------------------------------
  

 Cite this work as:
 Gaussian 09, Revision A.02,
 M. J. Frisch, G. W. Trucks, H. B. Schlegel, G. E. Scuseria, 
 M. A. Robb, J. R. Cheeseman, G. Scalmani, V. Barone, B. Mennucci, 
 G. A. Petersson, H. Nakatsuji, M. Caricato, X. Li, H. P. Hratchian, 
 A. F. Izmaylov, J. Bloino, G. Zheng, J. L. Sonnenberg, M. Hada, 
 M. Ehara, K. Toyota, R. Fukuda, J. Hasegawa, M. Ishida, T. Nakajima, 
 Y. Honda, O. Kitao, H. Nakai, T. Vreven, J. A. Montgomery, Jr., 
 J. E. Peralta, F. Ogliaro, M. Bearpark, J. J. Heyd, E. Brothers, 
 K. N. Kudin, V. N. Staroverov, R. Kobayashi, J. Normand, 
 K. Raghavachari, A. Rendell, J. C. Burant, S. S. Iyengar, J. Tomasi, 
 M. Cossi, N. Rega, J. M. Millam, M. Klene, J. E. Knox, J. B. Cross, 
 V. Bakken, C. Adamo, J. Jaramillo, R. Gomperts, R. E. Stratmann, 
 O. Yazyev, A. J. Austin, R. Cammi, C. Pomelli, J. W. Ochterski, 
 R. L. Martin, K. Morokuma, V. G. Zakrzewski, G. A. Voth, 
 P. Salvador, J. J. Dannenberg, S. Dapprich, A. D. Daniels, 
 O. Farkas, J. B. Foresman, J. V. Ortiz, J. Cioslowski, 
 and D. J. Fox, Gaussian, Inc., Wallingford CT, 2009.
 
 ******************************************
 Gaussian 09:  IA32W-G09RevA.02 11-Jun-2009
                03-Feb-2015 
 ******************************************
 %chk=J:\che513\mediumProject\formaldehydeFormationNoBonds.chk
 --------------------------------
 # opt hf/3-21g geom=connectivity
 --------------------------------
 1/18=20,19=15,38=1,57=2/1,3;
 2/9=110,12=2,17=6,18=5,40=1/2;
 3/5=5,11=9,16=1,25=1,30=1,71=1/1,2,3;
 4//1;
 5/5=2,38=5/2;
 6/7=2,8=2,9=2,10=2,28=1/1;
 7//1,2,3,16;
 1/18=20,19=15/3(2);
 2/9=110/2;
 99//99;
 2/9=110/2;
 3/5=5,11=9,16=1,25=1,30=1,71=1/1,2,3;
 4/5=5,16=3/1;
 5/5=2,38=5/2;
 7//1,2,3,16;
 1/18=20,19=15/3(-5);
 2/9=110/2;
 6/7=2,8=2,9=2,10=2,19=2,28=1/1;
 99/9=1/99;
 -------------------
 Title Card Required
 -------------------
 Symbolic Z-matrix:
 Charge =  0 Multiplicity = 1
 C(Fragment=1)        0    -1.85247   0.09673   0. 
 O(Fragment=1)        0    -2.77572  -0.75836   0. 
 O(Fragment=1)        0    -0.92922   0.95182   0. 
 C(Fragment=2)        -1    4.11518  -0.44062   0.07021 
 H(Fragment=2)        -1    4.68087   0.35632  -0.36541 
 H(Fragment=2)        -1    4.5018   -0.66218   1.04301 
 H(Fragment=2)        -1    4.18838  -1.31003  -0.5492 
 H(Fragment=2)        -1    3.08966  -0.1466    0.15245 
 

 GradGradGradGradGradGradGradGradGradGradGradGradGradGradGradGradGradGrad
 Berny optimization.
 Initialization pass.
                           ----------------------------
                           !    Initial Parameters    !
                           ! (Angstroms and Degrees)  !
 --------------------------                            --------------------------
 ! Name  Definition              Value          Derivative Info.                !
 --------------------------------------------------------------------------------
 ! X4    R(4,-1)                 4.1152         Frozen                          !
 ! Y4    R(4,-2)                -0.4406         Frozen                          !
 ! Z4    R(4,-3)                 0.0702         Frozen                          !
 ! X5    R(5,-1)                 4.6809         Frozen                          !
 ! Y5    R(5,-2)                 0.3563         Frozen                          !
 ! Z5    R(5,-3)                -0.3654         Frozen                          !
 ! X6    R(6,-1)                 4.5018         Frozen                          !
 ! Y6    R(6,-2)                -0.6622         Frozen                          !
 ! Z6    R(6,-3)                 1.043          Frozen                          !
 ! X7    R(7,-1)                 4.1884         Frozen                          !
 ! Y7    R(7,-2)                -1.31           Frozen                          !
 ! Z7    R(7,-3)                -0.5492         Frozen                          !
 ! X8    R(8,-1)                 3.0897         Frozen                          !
 ! Y8    R(8,-2)                -0.1466         Frozen                          !
 ! Z8    R(8,-3)                 0.1524         Frozen                          !
 ! R1    R(1,2)                  1.2584         estimate D2E/DX2                !
 ! R2    R(1,3)                  1.2584         estimate D2E/DX2                !
 ! R3    R(1,8)                  4.9505         estimate D2E/DX2                !
 ! R4    R(3,8)                  4.1691         estimate D2E/DX2                !
 ! A1    A(2,1,8)              134.3498         estimate D2E/DX2                !
 ! A2    A(1,8,4)              165.4557         estimate D2E/DX2                !
 ! A3    A(3,8,4)              173.4579         estimate D2E/DX2                !
 ! A4    L(2,1,3,-3,-1)        179.9998         estimate D2E/DX2                !
 ! A5    L(2,1,3,-2,-2)        180.0            estimate D2E/DX2                !
 ! D1    D(2,1,8,4)             26.8724         estimate D2E/DX2                !
 ! D2    D(5,4,8,1)            131.2149         estimate D2E/DX2                !
 ! D3    D(5,4,8,3)             72.3103         estimate D2E/DX2                !
 ! D4    D(6,4,8,1)           -108.7851         estimate D2E/DX2                !
 ! D5    D(6,4,8,3)           -167.6897         estimate D2E/DX2                !
 ! D6    D(7,4,8,1)             11.2149         estimate D2E/DX2                !
 ! D7    D(7,4,8,3)            -47.6897         estimate D2E/DX2                !
 --------------------------------------------------------------------------------
 Trust Radius=3.00D-01 FncErr=1.00D-07 GrdErr=1.00D-07
 Number of steps in this run=  41 maximum allowed number of steps= 100.
 GradGradGradGradGradGradGradGradGradGradGradGradGradGradGradGradGradGrad

                          Input orientation:                          
 ---------------------------------------------------------------------
 Center     Atomic      Atomic             Coordinates (Angstroms)
 Number     Number       Type             X           Y           Z
 ---------------------------------------------------------------------
      1          6           0       -1.852466    0.096726    0.000000
      2          8           0       -2.775717   -0.758363    0.000000
      3          8           0       -0.929217    0.951818    0.000000
      4          6           0        4.115176   -0.440621    0.070212
      5          1           0        4.680872    0.356323   -0.365412
      6          1           0        4.501797   -0.662180    1.043010
      7          1           0        4.188375   -1.310032   -0.549197
      8          1           0        3.089658   -0.146596    0.152447
 ---------------------------------------------------------------------
                    Distance matrix (angstroms):
                    1          2          3          4          5
     1  C    0.000000
     2  O    1.258400   0.000000
     3  O    1.258400   2.516800   0.000000
     4  C    5.992196   6.898572   5.233518   0.000000
     5  H    6.548696   7.548296   5.653427   1.070000   0.000000
     6  H    6.483862   7.352505   5.760969   1.070000   1.747303
     7  H    6.226744   7.007463   5.622039   1.070000   1.747303
     8  H    4.950458   5.899163   4.169065   1.070000   1.747303
                    6          7          8
     6  H    0.000000
     7  H    1.747303   0.000000
     8  H    1.747303   1.747303   0.000000
 Stoichiometry    C2H4O2
 Framework group  C1[X(C2H4O2)]
 Deg. of freedom    18
 Full point group                 C1      NOp   1
 Largest Abelian subgroup         C1      NOp   1
 Largest concise Abelian subgroup C1      NOp   1
                         Standard orientation:                         
 ---------------------------------------------------------------------
 Center     Atomic      Atomic             Coordinates (Angstroms)
 Number     Number       Type             X           Y           Z
 ---------------------------------------------------------------------
      1          6           0       -1.870087    0.096225    0.000000
      2          8           0       -2.759783   -0.793725    0.000000
      3          8           0       -0.980393    0.986178    0.000000
      4          6           0        4.114193   -0.211697    0.000000
      5          1           0        4.643990    0.611247   -0.432409
      6          1           0        4.519864   -0.429044    0.965967
      7          1           0        4.213789   -1.070681   -0.630181
      8          1           0        3.079128    0.041688    0.096623
 ---------------------------------------------------------------------
 Rotational constants (GHZ):     17.1343124      1.1250720      1.0625796
 Standard basis: 3-21G (6D, 7F)
 There are    44 symmetry adapted basis functions of A   symmetry.
 Integral buffers will be    262144 words long.
 Raffenetti 1 integral format.
 Two-electron integral symmetry is turned on.
    44 basis functions,    72 primitive gaussians,    44 cartesian basis functions
    16 alpha electrons       16 beta electrons
       nuclear repulsion energy        87.0634671088 Hartrees.
 NAtoms=    8 NActive=    8 NUniq=    8 SFac= 7.50D-01 NAtFMM=   80 NAOKFM=F Big=F
 One-electron integrals computed using PRISM.
 NBasis=    44 RedAO= T  NBF=    44
 NBsUse=    44 1.00D-06 NBFU=    44
 Harris functional with IExCor=  205 diagonalized for initial guess.
 ExpMin= 1.83D-01 ExpMax= 3.22D+02 ExpMxC= 3.22D+02 IAcc=1 IRadAn=         1 AccDes= 0.00D+00
 HarFok:  IExCor=  205 AccDes= 0.00D+00 IRadAn=         1 IDoV= 1
 ScaDFX=  1.000000  1.000000  1.000000  1.000000
 FoFCou: FMM=F IPFlag=           0 FMFlag=      100000 FMFlg1=           0
         NFxFlg=           0 DoJE=T BraDBF=F KetDBF=T FulRan=T
         Omega=  0.000000  0.000000  1.000000  0.000000  0.000000 ICntrl=     500 IOpCl=  0
         NMat0=    1 NMatS0=    1 NMatT0=    0 NMatD0=    1 NMtDS0=    0 NMtDT0=    0
         I1Cent=           4 NGrid=           0.
 Petite list used in FoFCou.
 Initial guess orbital symmetries:
       Occupied  (A) (A) (A) (A) (A) (A) (A) (A) (A) (A) (A) (A)
                 (A) (A) (A) (A)
       Virtual   (A) (A) (A) (A) (A) (A) (A) (A) (A) (A) (A) (A)
                 (A) (A) (A) (A) (A) (A) (A) (A) (A) (A) (A) (A)
                 (A) (A) (A) (A)
 The electronic state of the initial guess is 1-A.
 Requested convergence on RMS density matrix=1.00D-08 within 128 cycles.
 Requested convergence on MAX density matrix=1.00D-06.
 Requested convergence on             energy=1.00D-06.
 No special actions if energy rises.
 Keep R1 ints in memory in canonical form, NReq=1315049.
 SCF Done:  E(RHF) =  -226.501107286     A.U. after   11 cycles
             Convg  =    0.5582D-08             -V/T =  2.0060

 **********************************************************************

            Population analysis using the SCF density.

 **********************************************************************

 Orbital symmetries:
       Occupied  (A) (A) (A) (A) (A) (A) (A) (A) (A) (A) (A) (A)
                 (A) (A) (A) (A)
       Virtual   (A) (A) (A) (A) (A) (A) (A) (A) (A) (A) (A) (A)
                 (A) (A) (A) (A) (A) (A) (A) (A) (A) (A) (A) (A)
                 (A) (A) (A) (A)
 The electronic state is 1-A.
 Alpha  occ. eigenvalues --  -20.57663 -20.57502 -11.45835 -11.13758  -1.48659
 Alpha  occ. eigenvalues --   -1.44209  -0.95060  -0.78197  -0.69691  -0.67761
 Alpha  occ. eigenvalues --   -0.67759  -0.54780  -0.54764  -0.54747  -0.51609
 Alpha  occ. eigenvalues --   -0.51608
 Alpha virt. eigenvalues --    0.13562   0.13563   0.22966   0.30074   0.35703
 Alpha virt. eigenvalues --    0.35727   0.35800   0.68507   0.86024   0.86025
 Alpha virt. eigenvalues --    0.91576   0.91602   0.91623   0.98616   1.18564
 Alpha virt. eigenvalues --    1.35462   1.37212   1.37234   1.37276   1.71764
 Alpha virt. eigenvalues --    1.71765   1.82576   1.90195   1.91385   1.91390
 Alpha virt. eigenvalues --    1.96213   3.16202   3.91758
          Condensed to atoms (all electrons):
              1          2          3          4          5          6
     1  C    4.081800   0.434094   0.434046   0.000000   0.000000   0.000000
     2  O    0.434094   8.108369  -0.017729   0.000000   0.000000   0.000000
     3  O    0.434046  -0.017729   8.108977   0.000000   0.000000   0.000000
     4  C    0.000000   0.000000   0.000000   5.314138   0.372586   0.372181
     5  H    0.000000   0.000000   0.000000   0.372586   0.504420  -0.026194
     6  H    0.000000   0.000000   0.000000   0.372181  -0.026194   0.506638
     7  H    0.000000   0.000000   0.000000   0.371969  -0.026257  -0.026372
     8  H    0.000001   0.000000   0.000010   0.372377  -0.025962  -0.026149
              7          8
     1  C    0.000000   0.000001
     2  O    0.000000   0.000000
     3  O    0.000000   0.000010
     4  C    0.371969   0.372377
     5  H   -0.026257  -0.025962
     6  H   -0.026372  -0.026149
     7  H    0.507978  -0.026250
     8  H   -0.026250   0.502975
 Mulliken atomic charges:
              1
     1  C    1.050059
     2  O   -0.524734
     3  O   -0.525304
     4  C   -0.803252
     5  H    0.201406
     6  H    0.199896
     7  H    0.198932
     8  H    0.202996
 Sum of Mulliken atomic charges =   0.00000
 Mulliken charges with hydrogens summed into heavy atoms:
              1
     1  C    1.050059
     2  O   -0.524734
     3  O   -0.525304
     4  C   -0.000021
 Sum of Mulliken charges with hydrogens summed into heavy atoms =   0.00000
          Condensed to fragments (all electrons):
     1       0.000021
     2      -0.000021
 Electronic spatial extent (au):  <R**2>=           1045.4883
 Charge=              0.0000 electrons
 Dipole moment (field-independent basis, Debye):
    X=             -0.0109    Y=              0.0107    Z=              0.0004  Tot=              0.0152
 Quadrupole moment (field-independent basis, Debye-Ang):
   XX=            -26.8335   YY=            -26.7985   ZZ=            -23.1862
   XY=             -3.5522   XZ=              0.0007   YZ=             -0.0033
 Traceless Quadrupole moment (field-independent basis, Debye-Ang):
   XX=             -1.2275   YY=             -1.1924   ZZ=              2.4199
   XY=             -3.5522   XZ=              0.0007   YZ=             -0.0033
 Octapole moment (field-independent basis, Debye-Ang**2):
  XXX=             -0.7327  YYY=             -0.0440  ZZZ=              0.4129  XYY=             -0.3605
  XXY=             14.0404  XXZ=              0.0920  XZZ=             -6.3137  YZZ=              0.0710
  YYZ=             -0.5076  XYZ=             -0.1922
 Hexadecapole moment (field-independent basis, Debye-Ang**3):
 XXXX=          -1325.2915 YYYY=            -81.1419 ZZZZ=            -24.7574 XXXY=            -28.4762
 XXXZ=              1.0355 YYYX=              4.1525 YYYZ=              0.4769 ZZZX=              2.0175
 ZZZY=             -0.1429 XXYY=           -229.1383 XXZZ=           -207.2973 YYZZ=            -17.0617
 XXYZ=             -1.6597 YYXZ=             -2.2176 ZZXY=              0.1862
 N-N= 8.706346710881D+01 E-N=-7.060151523499D+02  KE= 2.251580455910D+02
 Calling FoFJK, ICntrl=      2127 FMM=F ISym2X=0 I1Cent= 0 IOpClX= 0 NMat=1 NMatS=1 NMatT=0.
 ***** Axes restored to original set *****
 -------------------------------------------------------------------
 Center     Atomic                   Forces (Hartrees/Bohr)
 Number     Number              X              Y              Z
 -------------------------------------------------------------------
      1        6          -0.000108011   -0.000092117   -0.000005170
      2        8           0.122329003    0.113309746   -0.000000269
      3        8          -0.122172701   -0.113247893    0.000010031
      4        6           0.000000000    0.000000000    0.000000000
      5        1           0.000000000    0.000000000    0.000000000
      6        1           0.000000000    0.000000000    0.000000000
      7        1           0.000000000    0.000000000    0.000000000
      8        1           0.000000000    0.000000000    0.000000000
 -------------------------------------------------------------------
 Cartesian Forces:  Max     0.122329003 RMS     0.048112177

 GradGradGradGradGradGradGradGradGradGradGradGradGradGradGradGradGradGrad
 Berny optimization.
 Internal  Forces:  Max     0.166743765 RMS     0.041754495
 Search for a local minimum.
 Step number   1 out of a maximum of   41
 All quantities printed in internal units (Hartrees-Bohrs-Radians)
 Mixed Optimization -- RFO/linear search
 Second derivative matrix not updated -- first step.
     Eigenvalues ---    0.00323   0.00499   0.00637   0.01008   0.01866
     Eigenvalues ---    0.05033   0.10674   0.76715   0.802091000.00000
     Eigenvalues --- 1000.000001000.000001000.000001000.000001000.00000
     Eigenvalues --- 1000.000001000.000001000.000001000.000001000.00000
     Eigenvalues --- 1000.000001000.000001000.000001000.000001000.00000
     Eigenvalues --- 1000.000001000.000001000.000001000.000001000.00000
     Eigenvalues --- 1000.00000
 RFO step:  Lambda=-6.37821326D-02 EMin= 3.22893833D-03
 Linear search not attempted -- first point.
 Iteration  1 RMS(Cart)=  0.09100218 RMS(Int)=  0.00108645
 Iteration  2 RMS(Cart)=  0.00157770 RMS(Int)=  0.00039871
 Iteration  3 RMS(Cart)=  0.00000146 RMS(Int)=  0.00039871
 New curvilinear step failed, DQL= 1.99D-06 SP=-1.20D-03.
 Iteration  1 RMS(Cart)=  0.08190196 RMS(Int)=  0.00087440
 Iteration  2 RMS(Cart)=  0.00127304 RMS(Int)=  0.00032067
 Iteration  3 RMS(Cart)=  0.00000090 RMS(Int)=  0.00032067
 Variable       Old X    -DE/DX   Delta X   Delta X   Delta X     New X
                                 (Linear)    (Quad)   (Total)
    X4        7.77655   0.00000   0.00000   0.00000   0.00000   7.77655
    Y4       -0.83265   0.00001   0.00000   0.00000   0.00000  -0.83265
    Z4        0.13268   0.00000   0.00000   0.00000   0.00000   0.13268
    X5        8.84557   0.00000   0.00000   0.00000   0.00000   8.84557
    Y5        0.67335   0.00000   0.00000   0.00000   0.00000   0.67335
    Z5       -0.69053   0.00000   0.00000   0.00000   0.00000  -0.69053
    X6        8.50716   0.00000   0.00000   0.00000   0.00000   8.50716
    Y6       -1.25134   0.00001   0.00000   0.00000   0.00000  -1.25134
    Z6        1.97100   0.00000   0.00000   0.00000   0.00000   1.97100
    X7        7.91488   0.00000   0.00000   0.00000   0.00000   7.91488
    Y7       -2.47560   0.00001   0.00000   0.00000   0.00000  -2.47560
    Z7       -1.03783  -0.00001   0.00000   0.00000   0.00000  -1.03783
    X8        5.83861   0.00004   0.00000   0.00000   0.00000   5.83861
    Y8       -0.27703  -0.00006   0.00000   0.00000   0.00000  -0.27703
    Z8        0.28808   0.00001   0.00000   0.00000   0.00000   0.28808
    R1        2.37803  -0.16674   0.00000  -0.19257  -0.17332   2.20472
    R2        2.37803  -0.15751   0.00000  -0.19010  -0.17071   2.20732
    R3        9.35501  -0.01097   0.00000  -0.02854  -0.02628   9.32872
    R4        7.87839   0.01023   0.00000   0.02333   0.02160   7.89999
    A1        2.34485   0.01540   0.00000   0.00751   0.00781   2.35265
    A2        2.88775   0.02480   0.00000   0.02562   0.02321   2.91095
    A3        3.02741   0.00966   0.00000   0.00731   0.00688   3.03429
    A4        3.14159   0.01552   0.00000   0.01709   0.01643   3.15802
    A5        3.14159  -0.00230   0.00000  -0.00653  -0.00591   3.13568
    D1        0.46901   0.00272   0.00000   0.01036   0.00938   0.47839
    D2        2.29013  -0.00134   0.00000  -0.00603  -0.00544   2.28469
    D3        1.26205   0.00133   0.00000   0.00603   0.00544   1.26749
    D4       -1.89866  -0.00132   0.00000  -0.00603  -0.00544  -1.90410
    D5       -2.92674   0.00134   0.00000   0.00603   0.00544  -2.92130
    D6        0.19574  -0.00134   0.00000  -0.00603  -0.00544   0.19030
    D7       -0.83234   0.00132   0.00000   0.00603   0.00544  -0.82690
         Item               Value     Threshold  Converged?
 Maximum Force            0.166744     0.000450     NO 
 RMS     Force            0.058120     0.000300     NO 
 Maximum Displacement     0.365428     0.001800     NO 
 RMS     Displacement     0.082178     0.001200     NO 
 Predicted change in Energy=-3.357664D-02
 GradGradGradGradGradGradGradGradGradGradGradGradGradGradGradGradGradGrad

                          Input orientation:                          
 ---------------------------------------------------------------------
 Center     Atomic      Atomic             Coordinates (Angstroms)
 Number     Number       Type             X           Y           Z
 ---------------------------------------------------------------------
      1          6           0       -1.833347    0.202232    0.043579
      2          8           0       -2.712230   -0.564987    0.053298
      3          8           0       -0.940971    0.955764    0.028438
      4          6           0        4.115176   -0.440621    0.070212
      5          1           0        4.680872    0.356323   -0.365412
      6          1           0        4.501797   -0.662180    1.043010
      7          1           0        4.188375   -1.310032   -0.549197
      8          1           0        3.089658   -0.146596    0.152447
 ---------------------------------------------------------------------
                    Distance matrix (angstroms):
                    1          2          3          4          5
     1  C    0.000000
     2  O    1.166685   0.000000
     3  O    1.168064   2.334665   0.000000
     4  C    5.983217   6.828559   5.245594   0.000000
     5  H    6.528864   7.462043   5.667413   1.070000   0.000000
     6  H    6.471485   7.282250   5.768087   1.070000   1.747303
     7  H    6.236944   6.966811   5.637170   1.070000   1.747303
     8  H    4.936549   5.817799   4.180496   1.070000   1.747303
                    6          7          8
     6  H    0.000000
     7  H    1.747303   0.000000
     8  H    1.747303   1.747303   0.000000
 Stoichiometry    C2H4O2
 Framework group  C1[X(C2H4O2)]
 Deg. of freedom    18
 Full point group                 C1      NOp   1
 Largest Abelian subgroup         C1      NOp   1
 Largest concise Abelian subgroup C1      NOp   1
                         Standard orientation:                         
 ---------------------------------------------------------------------
 Center     Atomic      Atomic             Coordinates (Angstroms)
 Number     Number       Type             X           Y           Z
 ---------------------------------------------------------------------
      1          6           0       -1.871425    0.087565    0.002080
      2          8           0       -2.700624   -0.733152   -0.000776
      3          8           0       -1.027927    0.895572   -0.000787
      4          6           0        4.105695   -0.182475    0.000003
      5          1           0        4.618790    0.656538   -0.421531
      6          1           0        4.509223   -0.398154    0.967240
      7          1           0        4.230623   -1.033493   -0.636441
      8          1           0        3.064146    0.045210    0.090743
 ---------------------------------------------------------------------
 Rotational constants (GHZ):     20.1374941      1.1369418      1.0832799
 Standard basis: 3-21G (6D, 7F)
 There are    44 symmetry adapted basis functions of A   symmetry.
 Integral buffers will be    262144 words long.
 Raffenetti 1 integral format.
 Two-electron integral symmetry is turned on.
    44 basis functions,    72 primitive gaussians,    44 cartesian basis functions
    16 alpha electrons       16 beta electrons
       nuclear repulsion energy        91.3138329884 Hartrees.
 NAtoms=    8 NActive=    8 NUniq=    8 SFac= 7.50D-01 NAtFMM=   80 NAOKFM=F Big=F
 One-electron integrals computed using PRISM.
 NBasis=    44 RedAO= T  NBF=    44
 NBsUse=    44 1.00D-06 NBFU=    44
 Initial guess read from the read-write file.
 B after Tr=     0.000000    0.000000    0.000000
         Rot=    1.000000    0.000000    0.000000    0.000000 Ang=   0.00 deg.
 Initial guess orbital symmetries:
       Occupied  (A) (A) (A) (A) (A) (A) (A) (A) (A) (A) (A) (A)
                 (A) (A) (A) (A)
       Virtual   (A) (A) (A) (A) (A) (A) (A) (A) (A) (A) (A) (A)
                 (A) (A) (A) (A) (A) (A) (A) (A) (A) (A) (A) (A)
                 (A) (A) (A) (A)
 Harris functional with IExCor=  205 diagonalized for initial guess.
 ExpMin= 1.83D-01 ExpMax= 3.22D+02 ExpMxC= 3.22D+02 IAcc=1 IRadAn=         1 AccDes= 0.00D+00
 HarFok:  IExCor=  205 AccDes= 0.00D+00 IRadAn=         1 IDoV= 1
 ScaDFX=  1.000000  1.000000  1.000000  1.000000
 FoFCou: FMM=F IPFlag=           0 FMFlag=      100000 FMFlg1=           0
         NFxFlg=           0 DoJE=T BraDBF=F KetDBF=T FulRan=T
         Omega=  0.000000  0.000000  1.000000  0.000000  0.000000 ICntrl=     500 IOpCl=  0
         NMat0=    1 NMatS0=    1 NMatT0=    0 NMatD0=    1 NMtDS0=    0 NMtDT0=    0
         I1Cent=           4 NGrid=           0.
 Petite list used in FoFCou.
 Requested convergence on RMS density matrix=1.00D-08 within 128 cycles.
 Requested convergence on MAX density matrix=1.00D-06.
 Requested convergence on             energy=1.00D-06.
 No special actions if energy rises.
 Keep R1 ints in memory in canonical form, NReq=1315049.
 SCF Done:  E(RHF) =  -226.537106741     A.U. after   13 cycles
             Convg  =    0.2835D-08             -V/T =  2.0030
 Calling FoFJK, ICntrl=      2127 FMM=F ISym2X=0 I1Cent= 0 IOpClX= 0 NMat=1 NMatS=1 NMatT=0.
 ***** Axes restored to original set *****
 -------------------------------------------------------------------
 Center     Atomic                   Forces (Hartrees/Bohr)
 Number     Number              X              Y              Z
 -------------------------------------------------------------------
      1        6           0.003516604   -0.000739847   -0.000836449
      2        8           0.017922791    0.017275062    0.000136565
      3        8          -0.021393579   -0.016565583    0.000704249
      4        6           0.000000000    0.000000000    0.000000000
      5        1           0.000000000    0.000000000    0.000000000
      6        1           0.000000000    0.000000000    0.000000000
      7        1           0.000000000    0.000000000    0.000000000
      8        1           0.000000000    0.000000000    0.000000000
 -------------------------------------------------------------------
 Cartesian Forces:  Max     0.021393579 RMS     0.007543999

 GradGradGradGradGradGradGradGradGradGradGradGradGradGradGradGradGradGrad
 Berny optimization.
 Using GEDIIS/GDIIS optimizer.
 Internal  Forces:  Max     0.025044927 RMS     0.006458410
 Search for a local minimum.
 Step number   2 out of a maximum of   41
 All quantities printed in internal units (Hartrees-Bohrs-Radians)
 Mixed Optimization -- RFO/linear search
 Update second derivatives using D2CorX and points    1    2
 DE= -3.60D-02 DEPred=-3.36D-02 R= 1.07D+00
 SS=  1.41D+00  RLast= 2.48D-01 DXNew= 5.0454D-01 7.4431D-01
 Trust test= 1.07D+00 RLast= 2.48D-01 DXMaxT set to 5.05D-01
 Use linear search instead of GDIIS.
     Eigenvalues ---    0.00323   0.00499   0.00622   0.00956   0.02002
     Eigenvalues ---    0.04894   0.10868   0.76524   0.812641000.00000
     Eigenvalues --- 1000.000001000.000001000.000001000.000001000.00000
     Eigenvalues --- 1000.000001000.000001000.000001000.000001000.00000
     Eigenvalues --- 1000.000001000.000001000.000001000.000001000.00000
     Eigenvalues --- 1000.000001000.000001000.000001000.000001000.00000
     Eigenvalues --- 1000.00000
 RFO step:  Lambda=-1.96379151D-04 EMin= 3.23095902D-03
 Quartic linear search produced a step of  0.12778.
 Iteration  1 RMS(Cart)=  0.02912016 RMS(Int)=  0.00074379
 Iteration  2 RMS(Cart)=  0.00059524 RMS(Int)=  0.00006477
 Iteration  3 RMS(Cart)=  0.00000076 RMS(Int)=  0.00006477
 Variable       Old X    -DE/DX   Delta X   Delta X   Delta X     New X
                                 (Linear)    (Quad)   (Total)
    X4        7.77655   0.00000   0.00000   0.00000   0.00000   7.77655
    Y4       -0.83265   0.00001   0.00000   0.00000   0.00000  -0.83265
    Z4        0.13268   0.00000   0.00000   0.00000   0.00000   0.13268
    X5        8.84557   0.00000   0.00000   0.00000   0.00000   8.84557
    Y5        0.67335   0.00000   0.00000   0.00000   0.00000   0.67335
    Z5       -0.69053   0.00000   0.00000   0.00000   0.00000  -0.69053
    X6        8.50716   0.00000   0.00000   0.00000   0.00000   8.50716
    Y6       -1.25134   0.00001   0.00000   0.00000   0.00000  -1.25134
    Z6        1.97100   0.00000   0.00000   0.00000   0.00000   1.97100
    X7        7.91488   0.00000   0.00000   0.00000   0.00000   7.91488
    Y7       -2.47560   0.00001   0.00000   0.00000   0.00000  -2.47560
    Z7       -1.03783  -0.00001   0.00000   0.00000   0.00000  -1.03783
    X8        5.83861   0.00004   0.00000   0.00000   0.00000   5.83861
    Y8       -0.27703  -0.00006   0.00000   0.00000   0.00000  -0.27703
    Z8        0.28808   0.00001   0.00000   0.00000   0.00000   0.28808
    R1        2.20472  -0.02486  -0.02215   0.00004  -0.02211   2.18261
    R2        2.20732  -0.02504  -0.02181  -0.00204  -0.02379   2.18353
    R3        9.32872  -0.00263  -0.00336  -0.03574  -0.03922   9.28951
    R4        7.89999   0.00250   0.00276   0.05260   0.05548   7.95547
    A1        2.35265   0.00384   0.00100   0.00859   0.00981   2.36247
    A2        2.91095   0.00388   0.00297  -0.00095   0.00203   2.91298
    A3        3.03429   0.00173   0.00088   0.00686   0.00775   3.04204
    A4        3.15802   0.00115   0.00210  -0.05668  -0.05436   3.10366
    A5        3.13568   0.00026  -0.00075   0.01506   0.01431   3.14999
    D1        0.47839   0.00040   0.00120  -0.01416  -0.01295   0.46544
    D2        2.28469  -0.00021  -0.00069   0.03183   0.03113   2.31582
    D3        1.26749   0.00020   0.00070  -0.03199  -0.03129   1.23620
    D4       -1.90410  -0.00020  -0.00069   0.03183   0.03113  -1.87297
    D5       -2.92130   0.00022   0.00070  -0.03199  -0.03129  -2.95259
    D6        0.19030  -0.00022  -0.00069   0.03183   0.03113   0.22143
    D7       -0.82690   0.00020   0.00070  -0.03199  -0.03129  -0.85820
         Item               Value     Threshold  Converged?
 Maximum Force            0.025045     0.000450     NO 
 RMS     Force            0.008990     0.000300     NO 
 Maximum Displacement     0.105449     0.001800     NO 
 RMS     Displacement     0.029436     0.001200     NO 
 Predicted change in Energy=-8.504403D-04
 GradGradGradGradGradGradGradGradGradGradGradGradGradGradGradGradGradGrad

                          Input orientation:                          
 ---------------------------------------------------------------------
 Center     Atomic      Atomic             Coordinates (Angstroms)
 Number     Number       Type             X           Y           Z
 ---------------------------------------------------------------------
      1          6           0       -1.813691    0.195378    0.079845
      2          8           0       -2.690416   -0.555951    0.109100
      3          8           0       -0.965605    0.979866    0.058675
      4          6           0        4.115176   -0.440621    0.070212
      5          1           0        4.680872    0.356323   -0.365412
      6          1           0        4.501797   -0.662180    1.043010
      7          1           0        4.188375   -1.310032   -0.549197
      8          1           0        3.089658   -0.146596    0.152447
 ---------------------------------------------------------------------
                    Distance matrix (angstroms):
                    1          2          3          4          5
     1  C    0.000000
     2  O    1.154988   0.000000
     3  O    1.155474   2.310032   0.000000
     4  C    5.962889   6.806679   5.275627   0.000000
     5  H    6.511798   7.442667   5.696609   1.070000   0.000000
     6  H    6.445811   7.253371   5.792902   1.070000   1.747303
     7  H    6.219868   6.951241   5.672446   1.070000   1.747303
     8  H    4.915796   5.794713   4.209853   1.070000   1.747303
                    6          7          8
     6  H    0.000000
     7  H    1.747303   0.000000
     8  H    1.747303   1.747303   0.000000
 Stoichiometry    C2H4O2
 Framework group  C1[X(C2H4O2)]
 Deg. of freedom    18
 Full point group                 C1      NOp   1
 Largest Abelian subgroup         C1      NOp   1
 Largest concise Abelian subgroup C1      NOp   1
                         Standard orientation:                         
 ---------------------------------------------------------------------
 Center     Atomic      Atomic             Coordinates (Angstroms)
 Number     Number       Type             X           Y           Z
 ---------------------------------------------------------------------
      1          6           0       -1.854090    0.069986   -0.003217
      2          8           0       -2.680120   -0.737262    0.001221
      3          8           0       -1.058822    0.908229    0.001180
      4          6           0        4.103608   -0.178765    0.000009
      5          1           0        4.617643    0.664888   -0.410986
      6          1           0        4.500623   -0.401262    0.968397
      7          1           0        4.235311   -1.024301   -0.642348
      8          1           0        3.060855    0.045615    0.084975
 ---------------------------------------------------------------------
 Rotational constants (GHZ):     19.8150027      1.1415112      1.0864730
 Standard basis: 3-21G (6D, 7F)
 There are    44 symmetry adapted basis functions of A   symmetry.
 Integral buffers will be    262144 words long.
 Raffenetti 1 integral format.
 Two-electron integral symmetry is turned on.
    44 basis functions,    72 primitive gaussians,    44 cartesian basis functions
    16 alpha electrons       16 beta electrons
       nuclear repulsion energy        91.9178929943 Hartrees.
 NAtoms=    8 NActive=    8 NUniq=    8 SFac= 7.50D-01 NAtFMM=   80 NAOKFM=F Big=F
 One-electron integrals computed using PRISM.
 NBasis=    44 RedAO= T  NBF=    44
 NBsUse=    44 1.00D-06 NBFU=    44
 Initial guess read from the read-write file.
 B after Tr=     0.000000    0.000000    0.000000
         Rot=    1.000000    0.000000    0.000000    0.000000 Ang=   0.00 deg.
 Initial guess orbital symmetries:
       Occupied  (A) (A) (A) (A) (A) (A) (A) (A) (A) (A) (A) (A)
                 (A) (A) (A) (A)
       Virtual   (A) (A) (A) (A) (A) (A) (A) (A) (A) (A) (A) (A)
                 (A) (A) (A) (A) (A) (A) (A) (A) (A) (A) (A) (A)
                 (A) (A) (A) (A)
 Harris functional with IExCor=  205 diagonalized for initial guess.
 ExpMin= 1.83D-01 ExpMax= 3.22D+02 ExpMxC= 3.22D+02 IAcc=1 IRadAn=         1 AccDes= 0.00D+00
 HarFok:  IExCor=  205 AccDes= 0.00D+00 IRadAn=         1 IDoV= 1
 ScaDFX=  1.000000  1.000000  1.000000  1.000000
 FoFCou: FMM=F IPFlag=           0 FMFlag=      100000 FMFlg1=           0
         NFxFlg=           0 DoJE=T BraDBF=F KetDBF=T FulRan=T
         Omega=  0.000000  0.000000  1.000000  0.000000  0.000000 ICntrl=     500 IOpCl=  0
         NMat0=    1 NMatS0=    1 NMatT0=    0 NMatD0=    1 NMtDS0=    0 NMtDT0=    0
         I1Cent=           4 NGrid=           0.
 Petite list used in FoFCou.
 Requested convergence on RMS density matrix=1.00D-08 within 128 cycles.
 Requested convergence on MAX density matrix=1.00D-06.
 Requested convergence on             energy=1.00D-06.
 No special actions if energy rises.
 Keep R1 ints in memory in canonical form, NReq=1315049.
 SCF Done:  E(RHF) =  -226.537575956     A.U. after   12 cycles
             Convg  =    0.4814D-08             -V/T =  2.0025
 Calling FoFJK, ICntrl=      2127 FMM=F ISym2X=0 I1Cent= 0 IOpClX= 0 NMat=1 NMatS=1 NMatT=0.
 ***** Axes restored to original set *****
 -------------------------------------------------------------------
 Center     Atomic                   Forces (Hartrees/Bohr)
 Number     Number              X              Y              Z
 -------------------------------------------------------------------
      1        6          -0.003357090    0.004944193    0.001070028
      2        8           0.000597003   -0.003405993   -0.000505575
      3        8           0.002800865   -0.001568577   -0.000560925
      4        6           0.000000000    0.000000000    0.000000000
      5        1           0.000000000    0.000000000    0.000000000
      6        1           0.000000000    0.000000000    0.000000000
      7        1           0.000000000    0.000000000    0.000000000
      8        1           0.000000000    0.000000000    0.000000000
 -------------------------------------------------------------------
 Cartesian Forces:  Max     0.004944193 RMS     0.001577086

 GradGradGradGradGradGradGradGradGradGradGradGradGradGradGradGradGradGrad
 Berny optimization.
 Using GEDIIS/GDIIS optimizer.
 Internal  Forces:  Max     0.003979604 RMS     0.000987641
 Search for a local minimum.
 Step number   3 out of a maximum of   41
 All quantities printed in internal units (Hartrees-Bohrs-Radians)
 Mixed Optimization -- RFO/linear search
 Update second derivatives using D2CorX and points    1    2    3
 DE= -4.69D-04 DEPred=-8.50D-04 R= 5.52D-01
 SS=  1.41D+00  RLast= 1.22D-01 DXNew= 8.4853D-01 3.6746D-01
 Trust test= 5.52D-01 RLast= 1.22D-01 DXMaxT set to 5.05D-01
 Use linear search instead of GDIIS.
     Eigenvalues ---    0.00324   0.00499   0.00611   0.00902   0.02434
     Eigenvalues ---    0.04672   0.11411   0.77305   0.948411000.00000
     Eigenvalues --- 1000.000001000.000001000.000001000.000001000.00000
     Eigenvalues --- 1000.000001000.000001000.000001000.000001000.00000
     Eigenvalues --- 1000.000001000.000001000.000001000.000001000.00000
     Eigenvalues --- 1000.000001000.000001000.000001000.000001000.00000
     Eigenvalues --- 1000.00000
 RFO step:  Lambda=-4.62185014D-04 EMin= 3.23521791D-03
 Quartic linear search produced a step of -0.23547.
 Iteration  1 RMS(Cart)=  0.04093467 RMS(Int)=  0.00176442
 Iteration  2 RMS(Cart)=  0.00439954 RMS(Int)=  0.00043428
 Iteration  3 RMS(Cart)=  0.00000624 RMS(Int)=  0.00043425
 Iteration  4 RMS(Cart)=  0.00000000 RMS(Int)=  0.00043425
 Variable       Old X    -DE/DX   Delta X   Delta X   Delta X     New X
                                 (Linear)    (Quad)   (Total)
    X4        7.77655   0.00000   0.00000   0.00000   0.00000   7.77655
    Y4       -0.83265   0.00002   0.00000   0.00000   0.00000  -0.83265
    Z4        0.13268   0.00000   0.00000   0.00000   0.00000   0.13268
    X5        8.84557   0.00000   0.00000   0.00000   0.00000   8.84557
    Y5        0.67335   0.00000   0.00000   0.00000   0.00000   0.67335
    Z5       -0.69053   0.00001   0.00000   0.00000   0.00000  -0.69053
    X6        8.50716   0.00000   0.00000   0.00000   0.00000   8.50716
    Y6       -1.25134   0.00001   0.00000   0.00000   0.00000  -1.25134
    Z6        1.97100   0.00000   0.00000   0.00000   0.00000   1.97100
    X7        7.91488   0.00000   0.00000   0.00000   0.00000   7.91488
    Y7       -2.47560   0.00001   0.00000   0.00000   0.00000  -2.47560
    Z7       -1.03783  -0.00001   0.00000   0.00000   0.00000  -1.03783
    X8        5.83861   0.00003   0.00000   0.00000   0.00000   5.83861
    Y8       -0.27703  -0.00007   0.00000   0.00000   0.00000  -0.27703
    Z8        0.28808   0.00001   0.00000   0.00000   0.00000   0.28808
    R1        2.18261   0.00175   0.00521  -0.01256  -0.00736   2.17525
    R2        2.18353   0.00028   0.00560  -0.01417  -0.00792   2.17561
    R3        9.28951   0.00136   0.00923   0.06628   0.07475   9.36426
    R4        7.95547  -0.00144  -0.01306  -0.05898  -0.07130   7.88416
    A1        2.36247  -0.00254  -0.00231  -0.00377  -0.00514   2.35733
    A2        2.91298   0.00022  -0.00048   0.01344   0.01432   2.92730
    A3        3.04204  -0.00014  -0.00182   0.00325   0.00219   3.04423
    A4        3.10366   0.00398   0.01280   0.07505   0.08880   3.19246
    A5        3.14999  -0.00092  -0.00337  -0.01295  -0.01647   3.13352
    D1        0.46544  -0.00008   0.00305  -0.00748  -0.00426   0.46118
    D2        2.31582  -0.00003  -0.00733  -0.00845  -0.01584   2.29998
    D3        1.23620   0.00000   0.00737   0.00607   0.01350   1.24970
    D4       -1.87297  -0.00001  -0.00733  -0.00845  -0.01584  -1.88881
    D5       -2.95259   0.00002   0.00737   0.00607   0.01350  -2.93909
    D6        0.22143  -0.00003  -0.00733  -0.00845  -0.01584   0.20558
    D7       -0.85820   0.00000   0.00737   0.00607   0.01350  -0.84470
         Item               Value     Threshold  Converged?
 Maximum Force            0.003980     0.000450     NO 
 RMS     Force            0.001375     0.000300     NO 
 Maximum Displacement     0.159519     0.001800     NO 
 RMS     Displacement     0.044198     0.001200     NO 
 Predicted change in Energy=-2.931217D-04
 GradGradGradGradGradGradGradGradGradGradGradGradGradGradGradGradGradGrad

                          Input orientation:                          
 ---------------------------------------------------------------------
 Center     Atomic      Atomic             Coordinates (Angstroms)
 Number     Number       Type             X           Y           Z
 ---------------------------------------------------------------------
      1          6           0       -1.847810    0.269731    0.092610
      2          8           0       -2.728321   -0.471537    0.108064
      3          8           0       -0.930707    0.965300    0.069104
      4          6           0        4.115176   -0.440621    0.070212
      5          1           0        4.680872    0.356323   -0.365412
      6          1           0        4.501797   -0.662180    1.043010
      7          1           0        4.188375   -1.310032   -0.549197
      8          1           0        3.089658   -0.146596    0.152447
 ---------------------------------------------------------------------
                    Distance matrix (angstroms):
                    1          2          3          4          5
     1  C    0.000000
     2  O    1.151093   0.000000
     3  O    1.151281   2.301616   0.000000
     4  C    6.005190   6.843671   5.238086   0.000000
     5  H    6.545302   7.470319   5.661225   1.070000   0.000000
     6  H    6.487621   7.292810   5.754066   1.070000   1.747303
     7  H    6.272408   6.998268   5.635994   1.070000   1.747303
     8  H    4.955351   5.827215   4.172120   1.070000   1.747303
                    6          7          8
     6  H    0.000000
     7  H    1.747303   0.000000
     8  H    1.747303   1.747303   0.000000
 Stoichiometry    C2H4O2
 Framework group  C1[X(C2H4O2)]
 Deg. of freedom    18
 Full point group                 C1      NOp   1
 Largest Abelian subgroup         C1      NOp   1
 Largest concise Abelian subgroup C1      NOp   1
                         Standard orientation:                         
 ---------------------------------------------------------------------
 Center     Atomic      Atomic             Coordinates (Angstroms)
 Number     Number       Type             X           Y           Z
 ---------------------------------------------------------------------
      1          6           0       -1.884659    0.095766    0.003180
      2          8           0       -2.708646   -0.708001   -0.001171
      3          8           0       -1.020801    0.856803   -0.001231
      4          6           0        4.114354   -0.176501    0.000013
      5          1           0        4.622037    0.668358   -0.416366
      6          1           0        4.512123   -0.389027    0.970329
      7          1           0        4.253511   -1.025423   -0.636279
      8          1           0        3.069746    0.040088    0.082368
 ---------------------------------------------------------------------
 Rotational constants (GHZ):     21.5826572      1.1313981      1.0821262
 Standard basis: 3-21G (6D, 7F)
 There are    44 symmetry adapted basis functions of A   symmetry.
 Integral buffers will be    262144 words long.
 Raffenetti 1 integral format.
 Two-electron integral symmetry is turned on.
    44 basis functions,    72 primitive gaussians,    44 cartesian basis functions
    16 alpha electrons       16 beta electrons
       nuclear repulsion energy        92.1127807960 Hartrees.
 NAtoms=    8 NActive=    8 NUniq=    8 SFac= 7.50D-01 NAtFMM=   80 NAOKFM=F Big=F
 One-electron integrals computed using PRISM.
 NBasis=    44 RedAO= T  NBF=    44
 NBsUse=    44 1.00D-06 NBFU=    44
 Initial guess read from the read-write file.
 B after Tr=     0.000000    0.000000    0.000000
         Rot=    1.000000    0.000000    0.000000    0.000000 Ang=   0.00 deg.
 Initial guess orbital symmetries:
       Occupied  (A) (A) (A) (A) (A) (A) (A) (A) (A) (A) (A) (A)
                 (A) (A) (A) (A)
       Virtual   (A) (A) (A) (A) (A) (A) (A) (A) (A) (A) (A) (A)
                 (A) (A) (A) (A) (A) (A) (A) (A) (A) (A) (A) (A)
                 (A) (A) (A) (A)
 Harris functional with IExCor=  205 diagonalized for initial guess.
 ExpMin= 1.83D-01 ExpMax= 3.22D+02 ExpMxC= 3.22D+02 IAcc=1 IRadAn=         1 AccDes= 0.00D+00
 HarFok:  IExCor=  205 AccDes= 0.00D+00 IRadAn=         1 IDoV= 1
 ScaDFX=  1.000000  1.000000  1.000000  1.000000
 FoFCou: FMM=F IPFlag=           0 FMFlag=      100000 FMFlg1=           0
         NFxFlg=           0 DoJE=T BraDBF=F KetDBF=T FulRan=T
         Omega=  0.000000  0.000000  1.000000  0.000000  0.000000 ICntrl=     500 IOpCl=  0
         NMat0=    1 NMatS0=    1 NMatT0=    0 NMatD0=    1 NMtDS0=    0 NMtDT0=    0
         I1Cent=           4 NGrid=           0.
 Petite list used in FoFCou.
 Requested convergence on RMS density matrix=1.00D-08 within 128 cycles.
 Requested convergence on MAX density matrix=1.00D-06.
 Requested convergence on             energy=1.00D-06.
 No special actions if energy rises.
 Keep R1 ints in memory in canonical form, NReq=1315049.
 SCF Done:  E(RHF) =  -226.537390235     A.U. after   13 cycles
             Convg  =    0.9068D-08             -V/T =  2.0023
 Calling FoFJK, ICntrl=      2127 FMM=F ISym2X=0 I1Cent= 0 IOpClX= 0 NMat=1 NMatS=1 NMatT=0.
 ***** Axes restored to original set *****
 -------------------------------------------------------------------
 Center     Atomic                   Forces (Hartrees/Bohr)
 Number     Number              X              Y              Z
 -------------------------------------------------------------------
      1        6           0.004878492   -0.005814342   -0.001053225
      2        8          -0.011172194   -0.004058449    0.000712656
      3        8           0.006340796    0.009842616    0.000344451
      4        6           0.000000000    0.000000000    0.000000000
      5        1           0.000000000    0.000000000    0.000000000
      6        1           0.000000000    0.000000000    0.000000000
      7        1           0.000000000    0.000000000    0.000000000
      8        1           0.000000000    0.000000000    0.000000000
 -------------------------------------------------------------------
 Cartesian Forces:  Max     0.011172194 RMS     0.003751187

 GradGradGradGradGradGradGradGradGradGradGradGradGradGradGradGradGradGrad
 Berny optimization.
 Using GEDIIS/GDIIS optimizer.
 Internal  Forces:  Max     0.011197174 RMS     0.003161736
 Search for a local minimum.
 Step number   4 out of a maximum of   41
 All quantities printed in internal units (Hartrees-Bohrs-Radians)
 Mixed Optimization -- RFO/linear search
 Update second derivatives using D2CorX and points    1    2    4    3
 DE=  1.86D-04 DEPred=-2.93D-04 R=-6.34D-01
 Trust test=-6.34D-01 RLast= 1.43D-01 DXMaxT set to 2.52D-01
 Use linear search instead of GDIIS.
     Eigenvalues ---    0.00324   0.00499   0.00623   0.00937   0.04401
     Eigenvalues ---    0.05062   0.15754   0.77422   1.111651000.00000
     Eigenvalues --- 1000.000001000.000001000.000001000.000001000.00000
     Eigenvalues --- 1000.000001000.000001000.000001000.000001000.00000
     Eigenvalues --- 1000.000001000.000001000.000001000.000001000.00000
     Eigenvalues --- 1000.000001000.000001000.000001000.000001000.00000
     Eigenvalues --- 1000.00000
 RFO step:  Lambda=-5.52748253D-05 EMin= 3.23777023D-03
 Quartic linear search produced a step of -0.61738.
 Iteration  1 RMS(Cart)=  0.03337441 RMS(Int)=  0.00069119
 Iteration  2 RMS(Cart)=  0.00123561 RMS(Int)=  0.00014353
 Iteration  3 RMS(Cart)=  0.00000042 RMS(Int)=  0.00014353
 Variable       Old X    -DE/DX   Delta X   Delta X   Delta X     New X
                                 (Linear)    (Quad)   (Total)
    X4        7.77655   0.00000   0.00000   0.00000   0.00000   7.77655
    Y4       -0.83265   0.00001   0.00000   0.00000   0.00000  -0.83265
    Z4        0.13268   0.00000   0.00000   0.00000   0.00000   0.13268
    X5        8.84557   0.00000   0.00000   0.00000   0.00000   8.84557
    Y5        0.67335   0.00001   0.00000   0.00000   0.00000   0.67335
    Z5       -0.69053   0.00001   0.00000   0.00000   0.00000  -0.69053
    X6        8.50716   0.00000   0.00000   0.00000   0.00000   8.50716
    Y6       -1.25134   0.00000   0.00000   0.00000   0.00000  -1.25134
    Z6        1.97100   0.00000   0.00000   0.00000   0.00000   1.97100
    X7        7.91488   0.00000   0.00000   0.00000   0.00000   7.91488
    Y7       -2.47560   0.00001   0.00000   0.00000   0.00000  -2.47560
    Z7       -1.03783  -0.00002   0.00000   0.00000   0.00000  -1.03783
    X8        5.83861   0.00004   0.00000   0.00000   0.00000   5.83861
    Y8       -0.27703  -0.00006   0.00000   0.00000   0.00000  -0.27703
    Z8        0.28808   0.00001   0.00000   0.00000   0.00000   0.28808
    R1        2.17525   0.01117   0.00454   0.00499   0.00953   2.18478
    R2        2.17561   0.01120   0.00489   0.00442   0.00913   2.18473
    R3        9.36426  -0.00077  -0.04615  -0.00340  -0.04934   9.31491
    R4        7.88416   0.00080   0.04402  -0.01493   0.02890   7.91307
    A1        2.35733   0.00202   0.00317  -0.00037   0.00257   2.35990
    A2        2.92730  -0.00222  -0.00884  -0.00166  -0.01099   2.91631
    A3        3.04423  -0.00059  -0.00135  -0.00069  -0.00244   3.04179
    A4        3.19246  -0.00690  -0.05483   0.00553  -0.04953   3.14293
    A5        3.13352   0.00121   0.01017  -0.00343   0.00683   3.14035
    D1        0.46118  -0.00021   0.00263  -0.00398  -0.00144   0.45973
    D2        2.29998   0.00007   0.00978  -0.01086  -0.00105   2.29893
    D3        1.24970  -0.00010  -0.00833   0.00747  -0.00089   1.24881
    D4       -1.88881   0.00008   0.00978  -0.01086  -0.00105  -1.88986
    D5       -2.93909  -0.00008  -0.00833   0.00747  -0.00089  -2.93998
    D6        0.20558   0.00006   0.00978  -0.01086  -0.00105   0.20454
    D7       -0.84470  -0.00010  -0.00833   0.00747  -0.00089  -0.84559
         Item               Value     Threshold  Converged?
 Maximum Force            0.011197     0.000450     NO 
 RMS     Force            0.004401     0.000300     NO 
 Maximum Displacement     0.114492     0.001800     NO 
 RMS     Displacement     0.032328     0.001200     NO 
 Predicted change in Energy=-1.438476D-04
 GradGradGradGradGradGradGradGradGradGradGradGradGradGradGradGradGradGrad

                          Input orientation:                          
 ---------------------------------------------------------------------
 Center     Atomic      Atomic             Coordinates (Angstroms)
 Number     Number       Type             X           Y           Z
 ---------------------------------------------------------------------
      1          6           0       -1.825309    0.218901    0.069297
      2          8           0       -2.704243   -0.532124    0.078902
      3          8           0       -0.945399    0.968724    0.058587
      4          6           0        4.115176   -0.440621    0.070212
      5          1           0        4.680872    0.356323   -0.365412
      6          1           0        4.501797   -0.662180    1.043010
      7          1           0        4.188375   -1.310032   -0.549197
      8          1           0        3.089658   -0.146596    0.152447
 ---------------------------------------------------------------------
                    Distance matrix (angstroms):
                    1          2          3          4          5
     1  C    0.000000
     2  O    1.156138   0.000000
     3  O    1.156111   2.312248   0.000000
     4  C    5.976983   6.820038   5.253171   0.000000
     5  H    6.522135   7.451622   5.675362   1.070000   0.000000
     6  H    6.461942   7.271412   5.770692   1.070000   1.747303
     7  H    6.235750   6.964757   5.649581   1.070000   1.747303
     8  H    4.929240   5.807179   4.187414   1.070000   1.747303
                    6          7          8
     6  H    0.000000
     7  H    1.747303   0.000000
     8  H    1.747303   1.747303   0.000000
 Stoichiometry    C2H4O2
 Framework group  C1[X(C2H4O2)]
 Deg. of freedom    18
 Full point group                 C1      NOp   1
 Largest Abelian subgroup         C1      NOp   1
 Largest concise Abelian subgroup C1      NOp   1
                         Standard orientation:                         
 ---------------------------------------------------------------------
 Center     Atomic      Atomic             Coordinates (Angstroms)
 Number     Number       Type             X           Y           Z
 ---------------------------------------------------------------------
      1          6           0       -1.866292    0.081786    0.000406
      2          8           0       -2.693040   -0.726386   -0.000152
      3          8           0       -1.038489    0.888838   -0.000153
      4          6           0        4.104998   -0.179033    0.000000
      5          1           0        4.616273    0.659230   -0.425222
      6          1           0        4.505265   -0.386151    0.970458
      7          1           0        4.236366   -1.033947   -0.629892
      8          1           0        3.062089    0.044737    0.084656
 ---------------------------------------------------------------------
 Rotational constants (GHZ):     20.4476717      1.1385467      1.0856236
 Standard basis: 3-21G (6D, 7F)
 There are    44 symmetry adapted basis functions of A   symmetry.
 Integral buffers will be    262144 words long.
 Raffenetti 1 integral format.
 Two-electron integral symmetry is turned on.
    44 basis functions,    72 primitive gaussians,    44 cartesian basis functions
    16 alpha electrons       16 beta electrons
       nuclear repulsion energy        91.8796613299 Hartrees.
 NAtoms=    8 NActive=    8 NUniq=    8 SFac= 7.50D-01 NAtFMM=   80 NAOKFM=F Big=F
 One-electron integrals computed using PRISM.
 NBasis=    44 RedAO= T  NBF=    44
 NBsUse=    44 1.00D-06 NBFU=    44
 Initial guess read from the read-write file.
 B after Tr=     0.000000    0.000000    0.000000
         Rot=    1.000000    0.000000    0.000000    0.000000 Ang=   0.00 deg.
 Initial guess orbital symmetries:
       Occupied  (A) (A) (A) (A) (A) (A) (A) (A) (A) (A) (A) (A)
                 (A) (A) (A) (A)
       Virtual   (A) (A) (A) (A) (A) (A) (A) (A) (A) (A) (A) (A)
                 (A) (A) (A) (A) (A) (A) (A) (A) (A) (A) (A) (A)
                 (A) (A) (A) (A)
 Harris functional with IExCor=  205 diagonalized for initial guess.
 ExpMin= 1.83D-01 ExpMax= 3.22D+02 ExpMxC= 3.22D+02 IAcc=1 IRadAn=         1 AccDes= 0.00D+00
 HarFok:  IExCor=  205 AccDes= 0.00D+00 IRadAn=         1 IDoV= 1
 ScaDFX=  1.000000  1.000000  1.000000  1.000000
 FoFCou: FMM=F IPFlag=           0 FMFlag=      100000 FMFlg1=           0
         NFxFlg=           0 DoJE=T BraDBF=F KetDBF=T FulRan=T
         Omega=  0.000000  0.000000  1.000000  0.000000  0.000000 ICntrl=     500 IOpCl=  0
         NMat0=    1 NMatS0=    1 NMatT0=    0 NMatD0=    1 NMtDS0=    0 NMtDT0=    0
         I1Cent=           4 NGrid=           0.
 Petite list used in FoFCou.
 Requested convergence on RMS density matrix=1.00D-08 within 128 cycles.
 Requested convergence on MAX density matrix=1.00D-06.
 Requested convergence on             energy=1.00D-06.
 No special actions if energy rises.
 Keep R1 ints in memory in canonical form, NReq=1315049.
 SCF Done:  E(RHF) =  -226.537708378     A.U. after   12 cycles
             Convg  =    0.3767D-08             -V/T =  2.0025
 Calling FoFJK, ICntrl=      2127 FMM=F ISym2X=0 I1Cent= 0 IOpClX= 0 NMat=1 NMatS=1 NMatT=0.
 ***** Axes restored to original set *****
 -------------------------------------------------------------------
 Center     Atomic                   Forces (Hartrees/Bohr)
 Number     Number              X              Y              Z
 -------------------------------------------------------------------
      1        6          -0.000041231   -0.000296570   -0.000153703
      2        8           0.000653561    0.000707490    0.000066661
      3        8          -0.000567813   -0.000441490    0.000090648
      4        6           0.000000000    0.000000000    0.000000000
      5        1           0.000000000    0.000000000    0.000000000
      6        1           0.000000000    0.000000000    0.000000000
      7        1           0.000000000    0.000000000    0.000000000
      8        1           0.000000000    0.000000000    0.000000000
 -------------------------------------------------------------------
 Cartesian Forces:  Max     0.000707490 RMS     0.000255844

 GradGradGradGradGradGradGradGradGradGradGradGradGradGradGradGradGradGrad
 Berny optimization.
 Using GEDIIS/GDIIS optimizer.
 Internal  Forces:  Max     0.000955888 RMS     0.000217001
 Search for a local minimum.
 Step number   5 out of a maximum of   41
 All quantities printed in internal units (Hartrees-Bohrs-Radians)
 Mixed Optimization -- En-DIIS/RFO-DIIS
 Update second derivatives using D2CorX and points    1    2    4    3    5
 DE= -1.32D-04 DEPred=-1.44D-04 R= 9.21D-01
 SS=  1.41D+00  RLast= 7.39D-02 DXNew= 4.2426D-01 2.2184D-01
 Trust test= 9.21D-01 RLast= 7.39D-02 DXMaxT set to 2.52D-01
 Use linear search instead of GDIIS.
     Eigenvalues ---    0.00322   0.00499   0.00604   0.00915   0.04027
     Eigenvalues ---    0.05009   0.16087   0.77828   1.223131000.00000
     Eigenvalues --- 1000.000001000.000001000.000001000.000001000.00000
     Eigenvalues --- 1000.000001000.000001000.000001000.000001000.00000
     Eigenvalues --- 1000.000001000.000001000.000001000.000001000.00000
     Eigenvalues --- 1000.000001000.000001000.000001000.000001000.00000
     Eigenvalues --- 1000.00000
 RFO step:  Lambda=-1.73358292D-06 EMin= 3.22035723D-03
 Quartic linear search produced a step of -0.03176.
 Iteration  1 RMS(Cart)=  0.00224636 RMS(Int)=  0.00000257
 Iteration  2 RMS(Cart)=  0.00000088 RMS(Int)=  0.00000239
 Variable       Old X    -DE/DX   Delta X   Delta X   Delta X     New X
                                 (Linear)    (Quad)   (Total)
    X4        7.77655   0.00000   0.00000   0.00000   0.00000   7.77655
    Y4       -0.83265   0.00001   0.00000   0.00000   0.00000  -0.83265
    Z4        0.13268   0.00000   0.00000   0.00000   0.00000   0.13268
    X5        8.84557   0.00000   0.00000   0.00000   0.00000   8.84557
    Y5        0.67335   0.00000   0.00000   0.00000   0.00000   0.67335
    Z5       -0.69053   0.00000   0.00000   0.00000   0.00000  -0.69053
    X6        8.50716   0.00000   0.00000   0.00000   0.00000   8.50716
    Y6       -1.25134   0.00001   0.00000   0.00000   0.00000  -1.25134
    Z6        1.97100   0.00000   0.00000   0.00000   0.00000   1.97100
    X7        7.91488   0.00000   0.00000   0.00000   0.00000   7.91488
    Y7       -2.47560   0.00001   0.00000   0.00000   0.00000  -2.47560
    Z7       -1.03783  -0.00001   0.00000   0.00000   0.00000  -1.03783
    X8        5.83861   0.00004   0.00000   0.00000   0.00000   5.83861
    Y8       -0.27703  -0.00006   0.00000   0.00000   0.00000  -0.27703
    Z8        0.28808   0.00001   0.00000   0.00000   0.00000   0.28808
    R1        2.18478  -0.00096  -0.00007  -0.00073  -0.00080   2.18398
    R2        2.18473  -0.00068  -0.00004  -0.00050  -0.00054   2.18420
    R3        9.31491  -0.00008  -0.00081  -0.00590  -0.00671   9.30821
    R4        7.91307   0.00003   0.00135  -0.00846  -0.00712   7.90595
    A1        2.35990   0.00020   0.00008   0.00077   0.00084   2.36075
    A2        2.91631   0.00011  -0.00011   0.00018   0.00007   2.91638
    A3        3.04179   0.00007   0.00001   0.00051   0.00051   3.04230
    A4        3.14293  -0.00005  -0.00125   0.00080  -0.00045   3.14248
    A5        3.14035   0.00012   0.00031   0.00244   0.00275   3.14310
    D1        0.45973   0.00001   0.00018   0.00039   0.00056   0.46030
    D2        2.29893  -0.00001   0.00054  -0.00032   0.00021   2.29914
    D3        1.24881   0.00001  -0.00040   0.00001  -0.00039   1.24842
    D4       -1.88986   0.00000   0.00054  -0.00032   0.00021  -1.88965
    D5       -2.93998   0.00002  -0.00040   0.00001  -0.00039  -2.94037
    D6        0.20454  -0.00002   0.00054  -0.00032   0.00021   0.20475
    D7       -0.84559   0.00000  -0.00040   0.00001  -0.00039  -0.84598
         Item               Value     Threshold  Converged?
 Maximum Force            0.000956     0.000450     NO 
 RMS     Force            0.000301     0.000300     NO 
 Maximum Displacement     0.006959     0.001800     NO 
 RMS     Displacement     0.002247     0.001200     NO 
 Predicted change in Energy=-1.010450D-06
 GradGradGradGradGradGradGradGradGradGradGradGradGradGradGradGradGradGrad

                          Input orientation:                          
 ---------------------------------------------------------------------
 Center     Atomic      Atomic             Coordinates (Angstroms)
 Number     Number       Type             X           Y           Z
 ---------------------------------------------------------------------
      1          6           0       -1.821762    0.218834    0.069704
      2          8           0       -2.701045   -0.531121    0.079960
      3          8           0       -0.941717    0.968084    0.060765
      4          6           0        4.115176   -0.440621    0.070212
      5          1           0        4.680872    0.356323   -0.365412
      6          1           0        4.501797   -0.662180    1.043010
      7          1           0        4.188375   -1.310032   -0.549197
      8          1           0        3.089658   -0.146596    0.152447
 ---------------------------------------------------------------------
                    Distance matrix (angstroms):
                    1          2          3          4          5
     1  C    0.000000
     2  O    1.155715   0.000000
     3  O    1.155827   2.311541   0.000000
     4  C    5.973450   6.816829   5.249448   0.000000
     5  H    6.518626   7.448397   5.671806   1.070000   0.000000
     6  H    6.458398   7.268121   5.766664   1.070000   1.747303
     7  H    6.232353   6.961800   5.646212   1.070000   1.747303
     8  H    4.925691   5.803909   4.183647   1.070000   1.747303
                    6          7          8
     6  H    0.000000
     7  H    1.747303   0.000000
     8  H    1.747303   1.747303   0.000000
 Stoichiometry    C2H4O2
 Framework group  C1[X(C2H4O2)]
 Deg. of freedom    18
 Full point group                 C1      NOp   1
 Largest Abelian subgroup         C1      NOp   1
 Largest concise Abelian subgroup C1      NOp   1
                         Standard orientation:                         
 ---------------------------------------------------------------------
 Center     Atomic      Atomic             Coordinates (Angstroms)
 Number     Number       Type             X           Y           Z
 ---------------------------------------------------------------------
      1          6           0       -1.865127    0.081616   -0.000476
      2          8           0       -2.692249   -0.725568    0.000179
      3          8           0       -1.037199    0.888132    0.000179
      4          6           0        4.102634   -0.179021    0.000000
      5          1           0        4.613937    0.658903   -0.425855
      6          1           0        4.502739   -0.385276    0.970708
      7          1           0        4.234165   -1.034472   -0.629129
      8          1           0        3.059697    0.044761    0.084276
 ---------------------------------------------------------------------
 Rotational constants (GHZ):     20.4803716      1.1397511      1.0868108
 Standard basis: 3-21G (6D, 7F)
 There are    44 symmetry adapted basis functions of A   symmetry.
 Integral buffers will be    262144 words long.
 Raffenetti 1 integral format.
 Two-electron integral symmetry is turned on.
    44 basis functions,    72 primitive gaussians,    44 cartesian basis functions
    16 alpha electrons       16 beta electrons
       nuclear repulsion energy        91.9094501650 Hartrees.
 NAtoms=    8 NActive=    8 NUniq=    8 SFac= 7.50D-01 NAtFMM=   80 NAOKFM=F Big=F
 One-electron integrals computed using PRISM.
 NBasis=    44 RedAO= T  NBF=    44
 NBsUse=    44 1.00D-06 NBFU=    44
 Initial guess read from the read-write file.
 B after Tr=     0.000000    0.000000    0.000000
         Rot=    1.000000    0.000000    0.000000    0.000000 Ang=   0.00 deg.
 Initial guess orbital symmetries:
       Occupied  (A) (A) (A) (A) (A) (A) (A) (A) (A) (A) (A) (A)
                 (A) (A) (A) (A)
       Virtual   (A) (A) (A) (A) (A) (A) (A) (A) (A) (A) (A) (A)
                 (A) (A) (A) (A) (A) (A) (A) (A) (A) (A) (A) (A)
                 (A) (A) (A) (A)
 Requested convergence on RMS density matrix=1.00D-08 within 128 cycles.
 Requested convergence on MAX density matrix=1.00D-06.
 Requested convergence on             energy=1.00D-06.
 No special actions if energy rises.
 Keep R1 ints in memory in canonical form, NReq=1315049.
 SCF Done:  E(RHF) =  -226.537709441     A.U. after    9 cycles
             Convg  =    0.4795D-08             -V/T =  2.0025
 Calling FoFJK, ICntrl=      2127 FMM=F ISym2X=0 I1Cent= 0 IOpClX= 0 NMat=1 NMatS=1 NMatT=0.
 ***** Axes restored to original set *****
 -------------------------------------------------------------------
 Center     Atomic                   Forces (Hartrees/Bohr)
 Number     Number              X              Y              Z
 -------------------------------------------------------------------
      1        6           0.000115074   -0.000070287    0.000172755
      2        8          -0.000050947    0.000059779   -0.000089349
      3        8          -0.000018967   -0.000020311   -0.000079842
      4        6           0.000000000    0.000000000    0.000000000
      5        1           0.000000000    0.000000000    0.000000000
      6        1           0.000000000    0.000000000    0.000000000
      7        1           0.000000000    0.000000000    0.000000000
      8        1           0.000000000    0.000000000    0.000000000
 -------------------------------------------------------------------
 Cartesian Forces:  Max     0.000172755 RMS     0.000053746

 GradGradGradGradGradGradGradGradGradGradGradGradGradGradGradGradGradGrad
 Berny optimization.
 Using GEDIIS/GDIIS optimizer.
 Internal  Forces:  Max     0.000131597 RMS     0.000036941
 Search for a local minimum.
 Step number   6 out of a maximum of   41
 All quantities printed in internal units (Hartrees-Bohrs-Radians)
 Mixed Optimization -- En-DIIS/RFO-DIIS
 Swaping is turned off.
 Update second derivatives using D2CorX and points    1    2    4    3    5
                                                      6
 DE= -1.06D-06 DEPred=-1.01D-06 R= 1.05D+00
 SS=  1.41D+00  RLast= 1.03D-02 DXNew= 4.2426D-01 3.0919D-02
 Trust test= 1.05D+00 RLast= 1.03D-02 DXMaxT set to 2.52D-01
     Eigenvalues ---    0.00217   0.00499   0.00592   0.00956   0.04006
     Eigenvalues ---    0.07009   0.14434   0.78045   1.228871000.00000
     Eigenvalues --- 1000.000001000.000001000.000001000.000001000.00000
     Eigenvalues --- 1000.000001000.000001000.000001000.000001000.00000
     Eigenvalues --- 1000.000001000.000001000.000001000.000001000.00000
     Eigenvalues --- 1000.000001000.000001000.000001000.000001000.00000
     Eigenvalues --- 1000.00000
 En-DIIS/RFO-DIIS IScMMF=        0 using points:     6    5
 RFO step:  Lambda=-1.56560970D-07.
 DIIS coeffs:      1.05439     -0.05439
 Iteration  1 RMS(Cart)=  0.00403554 RMS(Int)=  0.00000310
 Iteration  2 RMS(Cart)=  0.00000526 RMS(Int)=  0.00000048
 New curvilinear step failed, DQL= 1.09D-10 SP=-7.16D-02.
 Iteration  1 RMS(Cart)=  0.00364195 RMS(Int)=  0.00000251
 Iteration  2 RMS(Cart)=  0.00000427 RMS(Int)=  0.00000038
 New curvilinear step failed, DQL= 7.19D-11 SP=-6.93D-02.
 Iteration  1 RMS(Cart)=  0.00324837 RMS(Int)=  0.00000198
 Iteration  2 RMS(Cart)=  0.00000338 RMS(Int)=  0.00000030
 New curvilinear step failed, DQL= 4.56D-11 SP=-6.46D-02.
 Iteration  1 RMS(Cart)=  0.00285481 RMS(Int)=  0.00000152
 Iteration  2 RMS(Cart)=  0.00000260 RMS(Int)=  0.00000022
 New curvilinear step failed, DQL= 2.67D-11 SP=-5.95D-02.
 Iteration  1 RMS(Cart)=  0.00246129 RMS(Int)=  0.00000112
 Iteration  2 RMS(Cart)=  0.00000192 RMS(Int)=  0.00000016
 Iteration  3 RMS(Cart)=  0.00000000 RMS(Int)=  0.00000016
 Variable       Old X    -DE/DX   Delta X   Delta X   Delta X     New X
                                  (DIIS)     (GDIIS)  (Total)
    X4        7.77655   0.00000   0.00000   0.00000   0.00000   7.77655
    Y4       -0.83265   0.00001   0.00000   0.00000   0.00000  -0.83265
    Z4        0.13268   0.00000   0.00000   0.00000   0.00000   0.13268
    X5        8.84557   0.00000   0.00000   0.00000   0.00000   8.84557
    Y5        0.67335   0.00000   0.00000   0.00000   0.00000   0.67335
    Z5       -0.69053   0.00000   0.00000   0.00000   0.00000  -0.69053
    X6        8.50716   0.00000   0.00000   0.00000   0.00000   8.50716
    Y6       -1.25134   0.00001   0.00000   0.00000   0.00000  -1.25134
    Z6        1.97100   0.00000   0.00000   0.00000   0.00000   1.97100
    X7        7.91488   0.00000   0.00000   0.00000   0.00000   7.91488
    Y7       -2.47560   0.00001   0.00000   0.00000   0.00000  -2.47560
    Z7       -1.03783  -0.00001   0.00000   0.00000   0.00000  -1.03783
    X8        5.83861   0.00004   0.00000   0.00000   0.00000   5.83861
    Y8       -0.27703  -0.00006   0.00000   0.00000   0.00000  -0.27703
    Z8        0.28808   0.00001   0.00000   0.00000   0.00000   0.28808
    R1        2.18398   0.00000  -0.00004  -0.00043  -0.00030   2.18368
    R2        2.18420  -0.00004  -0.00003  -0.00035  -0.00024   2.18396
    R3        9.30821  -0.00001  -0.00036  -0.01181  -0.00745   9.30076
    R4        7.90595  -0.00004  -0.00039  -0.01229  -0.00776   7.89819
    A1        2.36075   0.00010   0.00005   0.00130   0.00083   2.36157
    A2        2.91638   0.00001   0.00000  -0.00019  -0.00011   2.91627
    A3        3.04230  -0.00002   0.00003   0.00028   0.00020   3.04249
    A4        3.14248  -0.00007  -0.00002  -0.00074  -0.00047   3.14202
    A5        3.14310  -0.00013   0.00015  -0.00258  -0.00140   3.14170
    D1        0.46030  -0.00001   0.00003  -0.00462  -0.00274   0.45756
    D2        2.29914  -0.00001   0.00001  -0.00017  -0.00009   2.29906
    D3        1.24842   0.00000  -0.00002  -0.00005  -0.00005   1.24837
    D4       -1.88965   0.00001   0.00001  -0.00017  -0.00009  -1.88973
    D5       -2.94037   0.00001  -0.00002  -0.00005  -0.00005  -2.94042
    D6        0.20475  -0.00001   0.00001  -0.00017  -0.00009   0.20466
    D7       -0.84598  -0.00001  -0.00002  -0.00005  -0.00005  -0.84603
         Item               Value     Threshold  Converged?
 Maximum Force            0.000132     0.000450     YES
 RMS     Force            0.000048     0.000300     YES
 Maximum Displacement     0.007494     0.001800     NO 
 RMS     Displacement     0.002461     0.001200     NO 
 Predicted change in Energy=-5.062352D-07
 GradGradGradGradGradGradGradGradGradGradGradGradGradGradGradGradGradGrad

                          Input orientation:                          
 ---------------------------------------------------------------------
 Center     Atomic      Atomic             Coordinates (Angstroms)
 Number     Number       Type             X           Y           Z
 ---------------------------------------------------------------------
      1          6           0       -1.817858    0.218096    0.069459
      2          8           0       -2.697538   -0.531177    0.077335
      3          8           0       -0.937751    0.967090    0.061673
      4          6           0        4.115176   -0.440621    0.070212
      5          1           0        4.680872    0.356323   -0.365412
      6          1           0        4.501797   -0.662180    1.043010
      7          1           0        4.188375   -1.310032   -0.549197
      8          1           0        3.089658   -0.146596    0.152447
 ---------------------------------------------------------------------
                    Distance matrix (angstroms):
                    1          2          3          4          5
     1  C    0.000000
     2  O    1.155556   0.000000
     3  O    1.155700   2.311255   0.000000
     4  C    5.969489   6.813319   5.245359   0.000000
     5  H    6.514731   7.444771   5.667836   1.070000   0.000000
     6  H    6.454512   7.264993   5.762484   1.070000   1.747303
     7  H    6.228383   6.958086   5.642306   1.070000   1.747303
     8  H    4.921748   5.800447   4.179540   1.070000   1.747303
                    6          7          8
     6  H    0.000000
     7  H    1.747303   0.000000
     8  H    1.747303   1.747303   0.000000
 Stoichiometry    C2H4O2
 Framework group  C1[X(C2H4O2)]
 Deg. of freedom    18
 Full point group                 C1      NOp   1
 Largest Abelian subgroup         C1      NOp   1
 Largest concise Abelian subgroup C1      NOp   1
                         Standard orientation:                         
 ---------------------------------------------------------------------
 Center     Atomic      Atomic             Coordinates (Angstroms)
 Number     Number       Type             X           Y           Z
 ---------------------------------------------------------------------
      1          6           0       -1.863798    0.081494   -0.000032
      2          8           0       -2.691417   -0.724952    0.000012
      3          8           0       -1.035735    0.887690    0.000012
      4          6           0        4.100000   -0.179087    0.000000
      5          1           0        4.611275    0.657958   -0.427614
      6          1           0        4.500287   -0.383452    0.971033
      7          1           0        4.231344   -1.035789   -0.627464
      8          1           0        3.057096    0.044935    0.084045
 ---------------------------------------------------------------------
 Rotational constants (GHZ):     20.5025706      1.1410901      1.0880908
 Standard basis: 3-21G (6D, 7F)
 There are    44 symmetry adapted basis functions of A   symmetry.
 Integral buffers will be    262144 words long.
 Raffenetti 1 integral format.
 Two-electron integral symmetry is turned on.
    44 basis functions,    72 primitive gaussians,    44 cartesian basis functions
    16 alpha electrons       16 beta electrons
       nuclear repulsion energy        91.9297887188 Hartrees.
 NAtoms=    8 NActive=    8 NUniq=    8 SFac= 7.50D-01 NAtFMM=   80 NAOKFM=F Big=F
 One-electron integrals computed using PRISM.
 NBasis=    44 RedAO= T  NBF=    44
 NBsUse=    44 1.00D-06 NBFU=    44
 Initial guess read from the read-write file.
 B after Tr=     0.000000    0.000000    0.000000
         Rot=    1.000000    0.000000    0.000000    0.000000 Ang=   0.00 deg.
 Initial guess orbital symmetries:
       Occupied  (A) (A) (A) (A) (A) (A) (A) (A) (A) (A) (A) (A)
                 (A) (A) (A) (A)
       Virtual   (A) (A) (A) (A) (A) (A) (A) (A) (A) (A) (A) (A)
                 (A) (A) (A) (A) (A) (A) (A) (A) (A) (A) (A) (A)
                 (A) (A) (A) (A)
 Requested convergence on RMS density matrix=1.00D-08 within 128 cycles.
 Requested convergence on MAX density matrix=1.00D-06.
 Requested convergence on             energy=1.00D-06.
 No special actions if energy rises.
[...]
         NMat0=    1 NMatS0=    1 NMatT0=    0 NMatD0=    1 NMtDS0=    0 NMtDT0=    0
         I1Cent=           4 NGrid=           0.
 Petite list used in FoFCou.
 Requested convergence on RMS density matrix=1.00D-08 within 128 cycles.
 Requested convergence on MAX density matrix=1.00D-06.
 Requested convergence on             energy=1.00D-06.
 No special actions if energy rises.
 Keep R1 ints in memory in canonical form, NReq=1315049.
 SCF Done:  E(RHF) =  -226.539646380     A.U. after   10 cycles
             Convg  =    0.3975D-08             -V/T =  2.0026
 Calling FoFJK, ICntrl=      2127 FMM=F ISym2X=0 I1Cent= 0 IOpClX= 0 NMat=1 NMatS=1 NMatT=0.
 ***** Axes restored to original set *****
 -------------------------------------------------------------------
 Center     Atomic                   Forces (Hartrees/Bohr)
 Number     Number              X              Y              Z
 -------------------------------------------------------------------
      1        6           0.000627793    0.000047328   -0.000846133
      2        8          -0.000002673    0.000309960    0.000532392
      3        8          -0.000656008   -0.000420271    0.000387444
      4        6           0.000000000    0.000000000    0.000000000
      5        1           0.000000000    0.000000000    0.000000000
      6        1           0.000000000    0.000000000    0.000000000
      7        1           0.000000000    0.000000000    0.000000000
      8        1           0.000000000    0.000000000    0.000000000
 -------------------------------------------------------------------
 Cartesian Forces:  Max     0.000846133 RMS     0.000306112

 GradGradGradGradGradGradGradGradGradGradGradGradGradGradGradGradGradGrad
 Berny optimization.
 Using GEDIIS/GDIIS optimizer.
 Internal  Forces:  Max     0.000688761 RMS     0.000190683
 Search for a local minimum.
 Step number  41 out of a maximum of   41
 All quantities printed in internal units (Hartrees-Bohrs-Radians)
 Mixed Optimization -- En-DIIS/RFO-DIIS
 Swaping is turned off.
 Update second derivatives using D2CorX and points   34   36   35   37   38
                                                     39   40   41
 DE= -8.01D-06 DEPred=-3.84D-06 R= 2.09D+00
 SS=  1.41D+00  RLast= 1.00D-01 DXNew= 9.5137D-01 3.0080D-01
 Trust test= 2.09D+00 RLast= 1.00D-01 DXMaxT set to 5.66D-01
     Eigenvalues ---    0.00058   0.00116   0.00408   0.00500   0.01763
     Eigenvalues ---    0.13050   0.31167   1.04217   2.153951000.00000
     Eigenvalues --- 1000.000001000.000001000.000001000.000001000.00000
     Eigenvalues --- 1000.000001000.000001000.000001000.000001000.00000
     Eigenvalues --- 1000.000001000.000001000.000001000.000001000.00000
     Eigenvalues --- 1000.000001000.000001000.000001000.000001000.00000
     Eigenvalues --- 1000.00000
 En-DIIS/RFO-DIIS IScMMF=        0 using points:    41   40   39   38   37
 RFO step:  Lambda=-1.40146652D-06.
 DIIS coeffs:      1.32250      0.64146     -2.27417      1.58907     -0.27887
 Iteration  1 RMS(Cart)=  0.03902509 RMS(Int)=  0.00131169
 Iteration  2 RMS(Cart)=  0.00299219 RMS(Int)=  0.00055071
 Iteration  3 RMS(Cart)=  0.00001506 RMS(Int)=  0.00055066
 New curvilinear step failed, DQL= 1.55D-08 SP=-6.74D-01.
 Iteration  1 RMS(Cart)=  0.03782397 RMS(Int)=  0.00124851
 Iteration  2 RMS(Cart)=  0.00285097 RMS(Int)=  0.00053872
 Iteration  3 RMS(Cart)=  0.00001462 RMS(Int)=  0.00053867
 New curvilinear step failed, DQL= 7.02D-07 SP=-1.39D-02.
 Iteration  1 RMS(Cart)=  0.03663904 RMS(Int)=  0.00118759
 Iteration  2 RMS(Cart)=  0.00271386 RMS(Int)=  0.00052704
 Iteration  3 RMS(Cart)=  0.00001360 RMS(Int)=  0.00052700
 New curvilinear step failed, DQL= 2.89D-06 SP=-3.01D-03.
 Iteration  1 RMS(Cart)=  0.03547217 RMS(Int)=  0.00112892
 Iteration  2 RMS(Cart)=  0.00258081 RMS(Int)=  0.00051568
 Iteration  3 RMS(Cart)=  0.00001258 RMS(Int)=  0.00051565
 New curvilinear step failed, DQL= 4.97D-06 SP=-1.55D-03.
 Iteration  1 RMS(Cart)=  0.03432541 RMS(Int)=  0.00107254
 Iteration  2 RMS(Cart)=  0.00245183 RMS(Int)=  0.00050463
 Iteration  3 RMS(Cart)=  0.00001158 RMS(Int)=  0.00050460
 New curvilinear step failed, DQL= 6.92D-06 SP=-9.77D-04.
 Iteration  1 RMS(Cart)=  0.03320113 RMS(Int)=  0.00101845
 Iteration  2 RMS(Cart)=  0.00232685 RMS(Int)=  0.00049389
 Iteration  3 RMS(Cart)=  0.00001059 RMS(Int)=  0.00049387
 New curvilinear step failed, DQL= 8.75D-06 SP=-6.72D-04.
 Iteration  1 RMS(Cart)=  0.03210194 RMS(Int)=  0.00096666
 Iteration  2 RMS(Cart)=  0.00220584 RMS(Int)=  0.00048347
 Iteration  3 RMS(Cart)=  0.00000963 RMS(Int)=  0.00048345
 New curvilinear step failed, DQL= 1.04D-05 SP=-4.84D-04.
 Iteration  1 RMS(Cart)=  0.03103075 RMS(Int)=  0.00091719
 Iteration  2 RMS(Cart)=  0.00208877 RMS(Int)=  0.00047336
 Iteration  3 RMS(Cart)=  0.00000871 RMS(Int)=  0.00047334
 New curvilinear step failed, DQL= 1.20D-05 SP=-3.59D-04.
 Iteration  1 RMS(Cart)=  0.02999087 RMS(Int)=  0.00087004
 Iteration  2 RMS(Cart)=  0.00197552 RMS(Int)=  0.00046356
 Iteration  3 RMS(Cart)=  0.00000790 RMS(Int)=  0.00046355
 New curvilinear step failed, DQL= 1.33D-05 SP=-2.87D-04.
 Iteration  1 RMS(Cart)=  0.02898594 RMS(Int)=  0.00082522
 Iteration  2 RMS(Cart)=  0.00186608 RMS(Int)=  0.00045408
 Iteration  3 RMS(Cart)=  0.00000704 RMS(Int)=  0.00045407
 New curvilinear step failed, DQL= 1.46D-05 SP=-2.18D-04.
 Iteration  1 RMS(Cart)=  0.04059418 RMS(Int)=  0.00149992
 Iteration  2 RMS(Cart)=  0.00293858 RMS(Int)=  0.00055788
 Iteration  3 RMS(Cart)=  0.00012784 RMS(Int)=  0.00055213
 Iteration  4 RMS(Cart)=  0.00000830 RMS(Int)=  0.00055207
 Iteration  1 RMS(Cart)=  0.00000590 RMS(Int)=  0.00000071
 Variable       Old X    -DE/DX   Delta X   Delta X   Delta X     New X
                                  (DIIS)     (GDIIS)  (Total)
    X4        7.77655   0.00002   0.00000   0.00000   0.00000   7.77655
    Y4       -0.83266   0.00007   0.00000   0.00000   0.00000  -0.83266
    Z4        0.13268  -0.00005   0.00000   0.00000   0.00000   0.13268
    X5        8.84557   0.00000   0.00000   0.00000   0.00000   8.84557
    Y5        0.67335  -0.00001   0.00000   0.00000   0.00000   0.67335
    Z5       -0.69053  -0.00002   0.00000   0.00000   0.00000  -0.69053
    X6        8.50716   0.00002   0.00000   0.00000   0.00000   8.50716
    Y6       -1.25134   0.00005   0.00000   0.00000   0.00000  -1.25134
    Z6        1.97100   0.00001   0.00000   0.00000   0.00000   1.97100
    X7        7.91488   0.00001   0.00000   0.00000   0.00000   7.91488
    Y7       -2.47560   0.00005   0.00000   0.00000   0.00000  -2.47560
    Z7       -1.03783  -0.00006   0.00000   0.00000   0.00000  -1.03783
    X8        5.83861  -0.00007   0.00000   0.00000   0.00000   5.83861
    Y8       -0.27703  -0.00023   0.00000   0.00000   0.00000  -0.27703
    Z8        0.28808   0.00020   0.00000   0.00000   0.00000   0.28808
    R1        2.18265  -0.00037  -0.00007   0.00025   0.00017   2.18283
    R2        2.18668  -0.00045   0.00020   0.00004   0.00099   2.18766
    R3        6.13221  -0.00014   0.00998  -0.01203  -0.00254   6.12967
    R4        4.84364   0.00013  -0.00203   0.00065  -0.00108   4.84255
    A1        2.35037   0.00008   0.00245  -0.00595  -0.00358   2.34679
    A2        2.74504   0.00020   0.00056  -0.00356  -0.00039   2.74465
    A3        3.01882   0.00029   0.01015   0.00167   0.01231   3.03114
    A4        3.14502  -0.00007   0.00332  -0.00022   0.00263   3.14765
    A5        3.13212   0.00069  -0.00102   0.00041  -0.00134   3.13078
    D1        0.27803   0.00001  -0.03419  -0.01063  -0.04408   0.23394
    D2        2.17839  -0.00002  -0.02077  -0.01009  -0.03103   2.14736
    D3        1.35080   0.00005   0.01906   0.00967   0.02889   1.37969
    D4       -2.01040   0.00002  -0.02077  -0.01009  -0.03103  -2.04143
    D5       -2.83800   0.00009   0.01906   0.00967   0.02889  -2.80910
    D6        0.08400  -0.00011  -0.02078  -0.01009  -0.03103   0.05297
    D7       -0.74359  -0.00004   0.01906   0.00967   0.02889  -0.71470
         Item               Value     Threshold  Converged?
 Maximum Force            0.000689     0.000450     NO 
 RMS     Force            0.000249     0.000300     YES
 Maximum Displacement     0.187388     0.001800     NO 
 RMS     Displacement     0.040379     0.001200     NO 
 Predicted change in Energy=-2.539893D-06
 Optimization stopped.
    -- Number of steps exceeded,  NStep=  41
    -- Flag reset to prevent archiving.
                           ----------------------------
                           ! Non-Optimized Parameters !
                           ! (Angstroms and Degrees)  !
 --------------------------                            --------------------------
 ! Name  Definition              Value          Derivative Info.                !
 --------------------------------------------------------------------------------
 ! X4    R(4,-1)                 4.1152         -DE/DX =    0.0                 !
 ! Y4    R(4,-2)                -0.4406         -DE/DX =    0.0001              !
 ! Z4    R(4,-3)                 0.0702         -DE/DX =   -0.0001              !
 ! X5    R(5,-1)                 4.6809         -DE/DX =    0.0                 !
 ! Y5    R(5,-2)                 0.3563         -DE/DX =    0.0                 !
 ! Z5    R(5,-3)                -0.3654         -DE/DX =    0.0                 !
 ! X6    R(6,-1)                 4.5018         -DE/DX =    0.0                 !
 ! Y6    R(6,-2)                -0.6622         -DE/DX =    0.0001              !
 ! Z6    R(6,-3)                 1.043          -DE/DX =    0.0                 !
 ! X7    R(7,-1)                 4.1884         -DE/DX =    0.0                 !
 ! Y7    R(7,-2)                -1.31           -DE/DX =    0.0                 !
 ! Z7    R(7,-3)                -0.5492         -DE/DX =   -0.0001              !
 ! X8    R(8,-1)                 3.0897         -DE/DX =   -0.0001              !
 ! Y8    R(8,-2)                -0.1466         -DE/DX =   -0.0002              !
 ! Z8    R(8,-3)                 0.1524         -DE/DX =    0.0002              !
 ! R1    R(1,2)                  1.1551         -DE/DX =   -0.0004              !
 ! R2    R(1,3)                  1.1577         -DE/DX =   -0.0005              !
 ! R3    R(1,8)                  3.2437         -DE/DX =   -0.0001              !
 ! R4    R(3,8)                  2.5626         -DE/DX =    0.0001              !
 ! A1    A(2,1,8)              134.4611         -DE/DX =    0.0001              !
 ! A2    A(1,8,4)              157.2568         -DE/DX =    0.0002              !
 ! A3    A(3,8,4)              173.6713         -DE/DX =    0.0003              !
 ! A4    L(2,1,3,-3,-1)        180.3468         -DE/DX =   -0.0001              !
 ! A5    L(2,1,3,-2,-2)        179.3803         -DE/DX =    0.0007              !
 ! D1    D(2,1,8,4)             13.404          -DE/DX =    0.0                 !
 ! D2    D(5,4,8,1)            123.0347         -DE/DX =    0.0                 !
 ! D3    D(5,4,8,3)             79.0504         -DE/DX =    0.0001              !
 ! D4    D(6,4,8,1)           -116.9654         -DE/DX =    0.0                 !
 ! D5    D(6,4,8,3)           -160.9497         -DE/DX =    0.0001              !
 ! D6    D(7,4,8,1)              3.0348         -DE/DX =   -0.0001              !
 ! D7    D(7,4,8,3)            -40.9495         -DE/DX =    0.0                 !
 --------------------------------------------------------------------------------
 GradGradGradGradGradGradGradGradGradGradGradGradGradGradGradGradGradGrad

                          Input orientation:                          
 ---------------------------------------------------------------------
 Center     Atomic      Atomic             Coordinates (Angstroms)
 Number     Number       Type             X           Y           Z
 ---------------------------------------------------------------------
      1          6           0       -0.122478   -0.340412   -0.265677
      2          8           0       -0.851370   -1.180056   -0.578347
      3          8           0        0.611817    0.499627    0.041105
      4          6           0        4.115175   -0.440623    0.070213
      5          1           0        4.680872    0.356323   -0.365412
      6          1           0        4.501797   -0.662180    1.043010
      7          1           0        4.188375   -1.310031   -0.549198
      8          1           0        3.089658   -0.146596    0.152447
 ---------------------------------------------------------------------
                    Distance matrix (angstroms):
                    1          2          3          4          5
     1  C    0.000000
     2  O    1.155010   0.000000
     3  O    1.157139   2.312136   0.000000
     4  C    4.252125   5.063000   3.627456   0.000000
     5  H    4.854643   5.745564   4.091821   1.070002   0.000000
     6  H    4.816650   5.617241   4.181573   1.069999   1.747302
     7  H    4.427641   5.041506   4.051554   1.069999   1.747302
     8  H    3.245028   4.139300   2.563142   1.070000   1.747302
                    6          7          8
     6  H    0.000000
     7  H    1.747303   0.000000
     8  H    1.747303   1.747303   0.000000
 Stoichiometry    C2H4O2
 Framework group  C1[X(C2H4O2)]
 Deg. of freedom    18
 Full point group                 C1      NOp   1
 Largest Abelian subgroup         C1      NOp   1
 Largest concise Abelian subgroup C1      NOp   1
                         Standard orientation:                         
 ---------------------------------------------------------------------
 Center     Atomic      Atomic             Coordinates (Angstroms)
 Number     Number       Type             X           Y           Z
 ---------------------------------------------------------------------
      1          6           0       -1.325003    0.115360    0.002250
      2          8           0       -2.130913   -0.712014   -0.000844
      3          8           0       -0.514315    0.941039   -0.000845
      4          6           0        2.911185   -0.252437    0.000002
      5          1           0        3.475051    0.343395   -0.686979
      6          1           0        3.382613   -0.231840    0.960329
      7          1           0        2.868105   -1.261042   -0.354621
      8          1           0        1.918971    0.139746    0.081271
 ---------------------------------------------------------------------
 Rotational constants (GHZ):     19.0935567      2.1533172      1.9581554

 **********************************************************************

            Population analysis using the SCF density.

 **********************************************************************

 Orbital symmetries:
       Occupied  (A) (A) (A) (A) (A) (A) (A) (A) (A) (A) (A) (A)
                 (A) (A) (A) (A)
       Virtual   (A) (A) (A) (A) (A) (A) (A) (A) (A) (A) (A) (A)
                 (A) (A) (A) (A) (A) (A) (A) (A) (A) (A) (A) (A)
                 (A) (A) (A) (A)
 The electronic state is 1-A.
 Alpha  occ. eigenvalues --  -20.56352 -20.56211 -11.42598 -11.13435  -1.55242
 Alpha  occ. eigenvalues --   -1.50669  -0.94826  -0.77565  -0.72589  -0.72540
 Alpha  occ. eigenvalues --   -0.72533  -0.54731  -0.54576  -0.54521  -0.52508
 Alpha  occ. eigenvalues --   -0.52145
 Alpha virt. eigenvalues --    0.20609   0.20758   0.27744   0.31141   0.35840
 Alpha virt. eigenvalues --    0.35898   0.38243   0.68343   0.84416   0.84491
 Alpha virt. eigenvalues --    0.91800   0.91881   0.92714   1.20950   1.26943
 Alpha virt. eigenvalues --    1.35731   1.37407   1.37474   1.39585   1.73185
 Alpha virt. eigenvalues --    1.75208   1.82559   1.85500   1.93121   1.94671
 Alpha virt. eigenvalues --    2.07515   3.32848   3.95080
          Condensed to atoms (all electrons):
              1          2          3          4          5          6
     1  C    3.912623   0.505314   0.490174   0.000099  -0.000001  -0.000001
     2  O    0.505314   8.055523  -0.023213   0.000002   0.000000   0.000000
     3  O    0.490174  -0.023213   8.064462  -0.002027   0.000005   0.000006
     4  C    0.000099   0.000002  -0.002027   5.344759   0.372756   0.371547
     5  H   -0.000001   0.000000   0.000005   0.372756   0.503422  -0.026171
     6  H   -0.000001   0.000000   0.000006   0.371547  -0.026171   0.507753
     7  H    0.000005   0.000000   0.000002   0.370394  -0.026500  -0.026687
     8  H    0.000162  -0.000037   0.011554   0.360178  -0.024630  -0.024892
              7          8
     1  C    0.000005   0.000162
     2  O    0.000000  -0.000037
     3  O    0.000002   0.011554
     4  C    0.370394   0.360178
     5  H   -0.026500  -0.024630
     6  H   -0.026687  -0.024892
     7  H    0.515286  -0.025875
     8  H   -0.025875   0.491846
 Mulliken atomic charges:
              1
     1  C    1.091626
     2  O   -0.537590
     3  O   -0.540964
     4  C   -0.817707
     5  H    0.201120
     6  H    0.198445
     7  H    0.193375
     8  H    0.211695
 Sum of Mulliken atomic charges =   0.00000
 Mulliken charges with hydrogens summed into heavy atoms:
              1
     1  C    1.091626
     2  O   -0.537590
     3  O   -0.540964
     4  C   -0.013072
 Sum of Mulliken charges with hydrogens summed into heavy atoms =   0.00000
          Condensed to fragments (all electrons):
     1       0.013072
     2      -0.013072
 Electronic spatial extent (au):  <R**2>=            592.4234
 Charge=              0.0000 electrons
 Dipole moment (field-independent basis, Debye):
    X=             -0.2090    Y=              0.0473    Z=              0.0126  Tot=              0.2147
 Quadrupole moment (field-independent basis, Debye-Ang):
   XX=            -26.4510   YY=            -26.3715   ZZ=            -22.7429
   XY=             -3.3572   XZ=             -0.0134   YZ=             -0.0089
 Traceless Quadrupole moment (field-independent basis, Debye-Ang):
   XX=             -1.2625   YY=             -1.1830   ZZ=              2.4456
   XY=             -3.3572   XZ=             -0.0134   YZ=             -0.0089
 Octapole moment (field-independent basis, Debye-Ang**2):
  XXX=             -4.6056  YYY=             -0.3055  ZZZ=              0.3646  XYY=             -1.5865
  XXY=             10.2807  XXZ=              0.0588  XZZ=             -4.9149  YZZ=              0.6087
  YYZ=             -0.4121  XYZ=             -0.2254
 Hexadecapole moment (field-independent basis, Debye-Ang**3):
 XXXX=           -691.1639 YYYY=            -74.2476 ZZZZ=            -24.1578 XXXY=            -10.1111
 XXXZ=              0.2430 YYYX=              1.9589 YYYZ=              0.5275 ZZZX=              1.3221
 ZZZY=             -0.2456 XXYY=           -125.9950 XXZZ=           -108.3713 YYZZ=            -16.2677
 XXYZ=             -1.3337 YYXZ=             -1.2405 ZZXY=              1.6675
 N-N= 9.988147039649D+01 E-N=-7.321447099023D+02  KE= 2.259633014873D+02


 OUR LITTLE SYSTEMS HAVE THEIR DAY,    
   THEY HAVE THEIR DAY AND CEASE TO BE.
   THEY ARE BUT BROKEN LIGHTS OF THEE, 
 AND THOU, OH LORD, ART MORE THAN THEY.
          -------------------          
 LET KNOWLEDGE GROW FROM MORE TO MORE, 
   BUT MORE OF REVERENCE IN US DWELL.  
   THAT MIND AND SOUL, ACCORDING WELL, 
 MAY MAKE ONE MUSIC AS BEFORE.....     
          -------------------          
                    LORD TENNYSON      
 Error termination request processed by link 9999.
 Error termination via Lnk1e in C:\G09W\l9999.exe at Tue Feb 03 17:55:32 2015.
 Job cpu time:  0 days  0 hours  1 minutes 35.0 seconds.
 File lengths (MBytes):  RWF=      5 Int=      0 D2E=      0 Chk=      1 Scr=      1
