 Entering Link 1 = C:\G09W\l1.exe PID=     11212.
  
 Copyright (c) 1988,1990,1992,1993,1995,1998,2003,2009, Gaussian, Inc.
                  All Rights Reserved.
  
 This is part of the Gaussian(R) 09 program.  It is based on
 the Gaussian(R) 03 system (copyright 2003, Gaussian, Inc.),
 the Gaussian(R) 98 system (copyright 1998, Gaussian, Inc.),
 the Gaussian(R) 94 system (copyright 1995, Gaussian, Inc.),
 the Gaussian 92(TM) system (copyright 1992, Gaussian, Inc.),
 the Gaussian 90(TM) system (copyright 1990, Gaussian, Inc.),
 the Gaussian 88(TM) system (copyright 1988, Gaussian, Inc.),
 the Gaussian 86(TM) system (copyright 1986, Carnegie Mellon
 University), and the Gaussian 82(TM) system (copyright 1983,
 Carnegie Mellon University). Gaussian is a federally registered
 trademark of Gaussian, Inc.
  
 This software contains proprietary and confidential information,
 including trade secrets, belonging to Gaussian, Inc.
  
 This software is provided under written license and may be
 used, copied, transmitted, or stored only in accord with that
 written license.
  
 The following legend is applicable only to US Government
 contracts under FAR:
  
                    RESTRICTED RIGHTS LEGEND
  
 Use, reproduction and disclosure by the US Government is
 subject to restrictions as set forth in subparagraphs (a)
 and (c) of the Commercial Computer Software - Restricted
 Rights clause in FAR 52.227-19.
  
 Gaussian, Inc.
 340 Quinnipiac St., Bldg. 40, Wallingford CT 06492
  
  
 ---------------------------------------------------------------
 Warning -- This program may not be used in any manner that
 competes with the business of Gaussian, Inc. or will provide
 assistance to any competitor of Gaussian, Inc.  The licensee
 of this program is prohibited from giving any competitor of
 Gaussian, Inc. access to this program.  By using this program,
 the user acknowledges that Gaussian, Inc. is engaged in the
 business of creating and licensing software in the field of
 computational chemistry and represents and warrants to the
 licensee that it is not a competitor of Gaussian, Inc. and that
 it will not use this program in any manner prohibited above.
 ---------------------------------------------------------------
  

 Cite this work as:
 Gaussian 09, Revision A.02,
 M. J. Frisch, G. W. Trucks, H. B. Schlegel, G. E. Scuseria, 
 M. A. Robb, J. R. Cheeseman, G. Scalmani, V. Barone, B. Mennucci, 
 G. A. Petersson, H. Nakatsuji, M. Caricato, X. Li, H. P. Hratchian, 
 A. F. Izmaylov, J. Bloino, G. Zheng, J. L. Sonnenberg, M. Hada, 
 M. Ehara, K. Toyota, R. Fukuda, J. Hasegawa, M. Ishida, T. Nakajima, 
 Y. Honda, O. Kitao, H. Nakai, T. Vreven, J. A. Montgomery, Jr., 
 J. E. Peralta, F. Ogliaro, M. Bearpark, J. J. Heyd, E. Brothers, 
 K. N. Kudin, V. N. Staroverov, R. Kobayashi, J. Normand, 
 K. Raghavachari, A. Rendell, J. C. Burant, S. S. Iyengar, J. Tomasi, 
 M. Cossi, N. Rega, J. M. Millam, M. Klene, J. E. Knox, J. B. Cross, 
 V. Bakken, C. Adamo, J. Jaramillo, R. Gomperts, R. E. Stratmann, 
 O. Yazyev, A. J. Austin, R. Cammi, C. Pomelli, J. W. Ochterski, 
 R. L. Martin, K. Morokuma, V. G. Zakrzewski, G. A. Voth, 
 P. Salvador, J. J. Dannenberg, S. Dapprich, A. D. Daniels, 
 O. Farkas, J. B. Foresman, J. V. Ortiz, J. Cioslowski, 
 and D. J. Fox, Gaussian, Inc., Wallingford CT, 2009.
 
 ******************************************
 Gaussian 09:  IA32W-G09RevA.02 11-Jun-2009
                03-Feb-2015 
 ******************************************
 %chk=J:\che513\mediumProject\HCO2opt_freq.chk
 ----------------------------------------
 # opt freq hf/6-31g(d) geom=connectivity
 ----------------------------------------
 1/18=20,19=15,38=1,57=2/1,3;
 2/9=110,12=2,17=6,18=5,40=1/2;
 3/5=1,6=6,7=1,11=9,16=1,25=1,30=1,71=1/1,2,3;
 4//1;
 5/5=2,38=5/2;
 6/7=2,8=2,9=2,10=2,28=1/1;
 7//1,2,3,16;
 1/18=20,19=15/3(2);
 2/9=110/2;
 99//99;
 2/9=110/2;
 3/5=1,6=6,7=1,11=9,16=1,25=1,30=1,71=1/1,2,3;
 4/5=5,16=3/1;
 5/5=2,38=5/2;
 7//1,2,3,16;
 1/18=20,19=15/3(-5);
 2/9=110/2;
 6/7=2,8=2,9=2,10=2,19=2,28=1/1;
 99/9=1/99;
 -------------------
 Title Card Required
 -------------------
 Symbolic Z-matrix:
 Charge =  0 Multiplicity = 1
 O                    -3.93245  -0.69338  -0.51222 
 C                    -3.72565  -1.65952   0.26713 
 H                    -3.60745  -2.64781  -0.12555 
 H                    -3.66801  -1.49272   1.32247 
 

 GradGradGradGradGradGradGradGradGradGradGradGradGradGradGradGradGradGrad
 Berny optimization.
 Initialization pass.
                           ----------------------------
                           !    Initial Parameters    !
                           ! (Angstroms and Degrees)  !
 --------------------------                            --------------------------
 ! Name  Definition              Value          Derivative Info.                !
 --------------------------------------------------------------------------------
 ! R1    R(1,2)                  1.2584         estimate D2E/DX2                !
 ! R2    R(2,3)                  1.07           estimate D2E/DX2                !
 ! R3    R(2,4)                  1.07           estimate D2E/DX2                !
 ! A1    A(1,2,3)              120.0            estimate D2E/DX2                !
 ! A2    A(1,2,4)              120.0            estimate D2E/DX2                !
 ! A3    A(3,2,4)              120.0            estimate D2E/DX2                !
 ! D1    D(1,2,4,3)            180.0            estimate D2E/DX2                !
 --------------------------------------------------------------------------------
 Trust Radius=3.00D-01 FncErr=1.00D-07 GrdErr=1.00D-07
 Number of steps in this run=  20 maximum allowed number of steps= 100.
 GradGradGradGradGradGradGradGradGradGradGradGradGradGradGradGradGradGrad

                          Input orientation:                          
 ---------------------------------------------------------------------
 Center     Atomic      Atomic             Coordinates (Angstroms)
 Number     Number       Type             X           Y           Z
 ---------------------------------------------------------------------
      1          8           0       -3.932451   -0.693377   -0.512217
      2          6           0       -3.725650   -1.659517    0.267128
      3          1           0       -3.607450   -2.647814   -0.125552
      4          1           0       -3.668011   -1.492715    1.322474
 ---------------------------------------------------------------------
                    Distance matrix (angstroms):
                    1          2          3          4
     1  O    0.000000
     2  C    1.258400   0.000000
     3  H    2.018653   1.070000   0.000000
     4  H    2.018653   1.070000   1.853294   0.000000
 Stoichiometry    CH2O
 Framework group  C2V[C2(CO),SGV'(H2)]
 Deg. of freedom     3
 Full point group                 C2V     NOp   4
 Largest Abelian subgroup         C2V     NOp   4
 Largest concise Abelian subgroup C2      NOp   2
                         Standard orientation:                         
 ---------------------------------------------------------------------
 Center     Atomic      Atomic             Coordinates (Angstroms)
 Number     Number       Type             X           Y           Z
 ---------------------------------------------------------------------
      1          8           0        0.000000    0.000000    0.696075
      2          6           0        0.000000    0.000000   -0.562325
      3          1           0        0.926647    0.000000   -1.097325
      4          1           0       -0.926647    0.000000   -1.097325
 ---------------------------------------------------------------------
 Rotational constants (GHZ):    291.9935424     36.5845882     32.5111823
 Standard basis: 6-31G(d) (6D, 7F)
 There are    18 symmetry adapted basis functions of A1  symmetry.
 There are     2 symmetry adapted basis functions of A2  symmetry.
 There are     8 symmetry adapted basis functions of B1  symmetry.
 There are     6 symmetry adapted basis functions of B2  symmetry.
 Integral buffers will be    262144 words long.
 Raffenetti 1 integral format.
 Two-electron integral symmetry is turned on.
    34 basis functions,    64 primitive gaussians,    34 cartesian basis functions
     8 alpha electrons        8 beta electrons
       nuclear repulsion energy        30.5992943904 Hartrees.
 NAtoms=    4 NActive=    4 NUniq=    3 SFac= 1.33D+00 NAtFMM=   80 NAOKFM=F Big=F
 One-electron integrals computed using PRISM.
 NBasis=    34 RedAO= T  NBF=    18     2     8     6
 NBsUse=    34 1.00D-06 NBFU=    18     2     8     6
 Harris functional with IExCor=  205 diagonalized for initial guess.
 ExpMin= 1.61D-01 ExpMax= 5.48D+03 ExpMxC= 8.25D+02 IAcc=1 IRadAn=         1 AccDes= 0.00D+00
 HarFok:  IExCor=  205 AccDes= 0.00D+00 IRadAn=         1 IDoV= 1
 ScaDFX=  1.000000  1.000000  1.000000  1.000000
 FoFCou: FMM=F IPFlag=           0 FMFlag=      100000 FMFlg1=           0
         NFxFlg=           0 DoJE=T BraDBF=F KetDBF=T FulRan=T
         Omega=  0.000000  0.000000  1.000000  0.000000  0.000000 ICntrl=     500 IOpCl=  0
         NMat0=    1 NMatS0=    1 NMatT0=    0 NMatD0=    1 NMtDS0=    0 NMtDT0=    0
         I1Cent=           4 NGrid=           0.
 Petite list used in FoFCou.
 Initial guess orbital symmetries:
       Occupied  (A1) (A1) (A1) (A1) (B1) (A1) (B2) (B1)
       Virtual   (B2) (A1) (B1) (A1) (B2) (A1) (B1) (A1) (A1) (B1)
                 (B2) (A1) (B1) (A1) (B2) (A2) (A1) (B1) (A2) (A1)
                 (A1) (B2) (B1) (A1) (A1) (A1)
 The electronic state of the initial guess is 1-A1.
 Requested convergence on RMS density matrix=1.00D-08 within 128 cycles.
 Requested convergence on MAX density matrix=1.00D-06.
 Requested convergence on             energy=1.00D-06.
 No special actions if energy rises.
 Keep R1 ints in memory in canonical form, NReq=1019381.
 SCF Done:  E(RHF) =  -113.857022096     A.U. after   11 cycles
             Convg  =    0.4694D-08             -V/T =  2.0039

 **********************************************************************

            Population analysis using the SCF density.

 **********************************************************************

 Orbital symmetries:
       Occupied  (A1) (A1) (A1) (A1) (B1) (A1) (B2) (B1)
       Virtual   (B2) (A1) (B1) (A1) (B2) (A1) (B1) (A1) (A1) (B1)
                 (A1) (B2) (B1) (A1) (B2) (A2) (A1) (B1) (A2) (A1)
                 (A1) (B2) (B1) (A1) (A1) (A1)
 The electronic state is 1-A1.
 Alpha  occ. eigenvalues --  -20.58375 -11.34276  -1.36811  -0.88400  -0.69420
 Alpha  occ. eigenvalues --   -0.62942  -0.50720  -0.44571
 Alpha virt. eigenvalues --    0.12407   0.25003   0.33080   0.36932   0.73995
 Alpha virt. eigenvalues --    0.80086   0.83782   0.90398   1.11178   1.11474
 Alpha virt. eigenvalues --    1.14971   1.27251   1.33394   1.61119   1.77369
 Alpha virt. eigenvalues --    1.79270   2.01072   2.17597   2.22308   2.43351
 Alpha virt. eigenvalues --    2.58797   2.83082   2.94876   3.23427   4.06941
 Alpha virt. eigenvalues --    4.47971
          Condensed to atoms (all electrons):
              1          2          3          4
     1  O    8.056068   0.504733  -0.048956  -0.048956
     2  C    0.504733   4.615702   0.374647   0.374647
     3  H   -0.048956   0.374647   0.570385  -0.062385
     4  H   -0.048956   0.374647  -0.062385   0.570385
 Mulliken atomic charges:
              1
     1  O   -0.462889
     2  C    0.130271
     3  H    0.166309
     4  H    0.166309
 Sum of Mulliken atomic charges =   0.00000
 Mulliken charges with hydrogens summed into heavy atoms:
              1
     1  O   -0.462889
     2  C    0.462889
 Sum of Mulliken charges with hydrogens summed into heavy atoms =   0.00000
 Electronic spatial extent (au):  <R**2>=             61.1271
 Charge=              0.0000 electrons
 Dipole moment (field-independent basis, Debye):
    X=              0.0000    Y=              0.0000    Z=             -3.0334  Tot=              3.0334
 Quadrupole moment (field-independent basis, Debye-Ang):
   XX=            -11.2907   YY=            -11.6002   ZZ=            -11.7802
   XY=              0.0000   XZ=              0.0000   YZ=              0.0000
 Traceless Quadrupole moment (field-independent basis, Debye-Ang):
   XX=              0.2663   YY=             -0.0432   ZZ=             -0.2231
   XY=              0.0000   XZ=              0.0000   YZ=              0.0000
 Octapole moment (field-independent basis, Debye-Ang**2):
  XXX=              0.0000  YYY=              0.0000  ZZZ=             -0.2217  XYY=              0.0000
  XXY=              0.0000  XXZ=             -0.7484  XZZ=              0.0000  YZZ=              0.0000
  YYZ=              0.4924  XYZ=              0.0000
 Hexadecapole moment (field-independent basis, Debye-Ang**3):
 XXXX=            -16.3120 YYYY=             -9.5550 ZZZZ=            -44.6713 XXXY=              0.0000
 XXXZ=              0.0000 YYYX=              0.0000 YYYZ=              0.0000 ZZZX=              0.0000
 ZZZY=              0.0000 XXYY=             -4.5951 XXZZ=             -9.6140 YYZZ=             -9.0446
 XXYZ=              0.0000 YYXZ=              0.0000 ZZXY=              0.0000
 N-N= 3.059929439037D+01 E-N=-3.294179398493D+02  KE= 1.134156332667D+02
 Symmetry A1   KE= 1.032169650362D+02
 Symmetry A2   KE= 1.834014436186D-32
 Symmetry B1   KE= 6.782179547784D+00
 Symmetry B2   KE= 3.416488682694D+00
 Calling FoFJK, ICntrl=      2127 FMM=F ISym2X=1 I1Cent= 0 IOpClX= 0 NMat=1 NMatS=1 NMatT=0.
 ***** Axes restored to original set *****
 -------------------------------------------------------------------
 Center     Atomic                   Forces (Hartrees/Bohr)
 Number     Number              X              Y              Z
 -------------------------------------------------------------------
      1        8           0.018827527   -0.087959214    0.070952984
      2        6          -0.021428905    0.100112437   -0.080756476
      3        1           0.001536607   -0.010576336   -0.000739087
      4        1           0.001064771   -0.001576887    0.010542580
 -------------------------------------------------------------------
 Cartesian Forces:  Max     0.100112437 RMS     0.050297833

 GradGradGradGradGradGradGradGradGradGradGradGradGradGradGradGradGradGrad
 Berny optimization.
 Internal  Forces:  Max     0.114567120 RMS     0.043691773
 Search for a local minimum.
 Step number   1 out of a maximum of   20
 All quantities printed in internal units (Hartrees-Bohrs-Radians)
 Mixed Optimization -- RFO/linear search
 Second derivative matrix not updated -- first step.
 The second derivative matrix:
                          R1        R2        R3        A1        A2
           R1           0.80209
           R2           0.00000   0.37230
           R3           0.00000   0.00000   0.37230
           A1           0.00000   0.00000   0.00000   0.16000
           A2           0.00000   0.00000   0.00000   0.00000   0.16000
           A3           0.00000   0.00000   0.00000   0.00000   0.00000
           D1           0.00000   0.00000   0.00000   0.00000   0.00000
                          A3        D1
           A3           0.16000
           D1           0.00000   0.00499
     Eigenvalues ---    0.00499   0.16000   0.16000   0.37230   0.37230
     Eigenvalues ---    0.802091000.00000
 RFO step:  Lambda=-1.67282591D-02 EMin= 4.99391805D-03
 Linear search not attempted -- first point.
 Iteration  1 RMS(Cart)=  0.04006089 RMS(Int)=  0.00016848
 Iteration  2 RMS(Cart)=  0.00017662 RMS(Int)=  0.00000002
 Iteration  3 RMS(Cart)=  0.00000001 RMS(Int)=  0.00000000
 ClnCor:  largest displacement from symmetrization is 2.85D-09 for atom     2.
 Variable       Old X    -DE/DX   Delta X   Delta X   Delta X     New X
                                 (Linear)    (Quad)   (Total)
    R1        2.37803  -0.11457   0.00000  -0.13992  -0.13992   2.23811
    R2        2.02201   0.01021   0.00000   0.02624   0.02624   2.04825
    R3        2.02201   0.01021   0.00000   0.02624   0.02624   2.04825
    A1        2.09440   0.00219   0.00000   0.01237   0.01237   2.10677
    A2        2.09440   0.00219   0.00000   0.01237   0.01237   2.10677
    A3        2.09440  -0.00437   0.00000  -0.02475  -0.02475   2.06965
    D1        3.14159   0.00000   0.00000   0.00000   0.00000   3.14159
         Item               Value     Threshold  Converged?
 Maximum Force            0.114567     0.000450     NO 
 RMS     Force            0.043692     0.000300     NO 
 Maximum Displacement     0.067134     0.001800     NO 
 RMS     Displacement     0.040014     0.001200     NO 
 Predicted change in Energy=-8.547083D-03
 GradGradGradGradGradGradGradGradGradGradGradGradGradGradGradGradGradGrad

                          Input orientation:                          
 ---------------------------------------------------------------------
 Center     Atomic      Atomic             Coordinates (Angstroms)
 Number     Number       Type             X           Y           Z
 ---------------------------------------------------------------------
      1          8           0       -3.924847   -0.728903   -0.483559
      2          6           0       -3.730214   -1.638197    0.249930
      3          1           0       -3.608799   -2.643983   -0.135383
      4          1           0       -3.669703   -1.482341    1.320845
 ---------------------------------------------------------------------
                    Distance matrix (angstroms):
                    1          2          3          4
     1  O    0.000000
     2  C    1.184359   0.000000
     3  H    1.971965   1.083888   0.000000
     4  H    1.971965   1.083888   1.863793   0.000000
 Stoichiometry    CH2O
 Framework group  C2V[C2(CO),SGV(H2)]
 Deg. of freedom     3
 Full point group                 C2V     NOp   4
 Omega: Change in point group or standard orientation.

 Old FWG=C02V [C2(C1O1),SGV'(H2)]
 New FWG=C02V [C2(C1O1),SGV(H2)]
 Largest Abelian subgroup         C2V     NOp   4
 Largest concise Abelian subgroup C2      NOp   2
                         Standard orientation:                         
 ---------------------------------------------------------------------
 Center     Atomic      Atomic             Coordinates (Angstroms)
 Number     Number       Type             X           Y           Z
 ---------------------------------------------------------------------
      1          8           0        0.000000    0.000000    0.661369
      2          6           0        0.000000    0.000000   -0.522990
      3          1           0        0.000000    0.931896   -1.076507
      4          1           0        0.000000   -0.931896   -1.076507
 ---------------------------------------------------------------------
 Rotational constants (GHZ):    288.7132560     40.5508941     35.5568034
 Standard basis: 6-31G(d) (6D, 7F)
 There are    18 symmetry adapted basis functions of A1  symmetry.
 There are     2 symmetry adapted basis functions of A2  symmetry.
 There are     6 symmetry adapted basis functions of B1  symmetry.
 There are     8 symmetry adapted basis functions of B2  symmetry.
 Integral buffers will be    262144 words long.
 Raffenetti 1 integral format.
 Two-electron integral symmetry is turned on.
    34 basis functions,    64 primitive gaussians,    34 cartesian basis functions
     8 alpha electrons        8 beta electrons
       nuclear repulsion energy        31.8828206482 Hartrees.
 NAtoms=    4 NActive=    4 NUniq=    3 SFac= 1.33D+00 NAtFMM=   80 NAOKFM=F Big=F
 One-electron integrals computed using PRISM.
 NBasis=    34 RedAO= T  NBF=    18     2     6     8
 NBsUse=    34 1.00D-06 NBFU=    18     2     6     8
 Initial guess read from the read-write file.
 B after Tr=     0.000000    0.000000    0.000000
         Rot=    1.000000    0.000000    0.000000    0.000000 Ang=   0.00 deg.
 Initial guess orbital symmetries:
       Occupied  (A1) (A1) (A1) (A1) (B2) (A1) (B2) (B2)
       Virtual   (B2) (A1) (B2) (A1) (B2) (A1) (B2) (A1) (A1) (B2)
                 (A1) (B2) (B2) (A1) (B2) (A2) (A1) (B2) (A2) (A1)
                 (A1) (B2) (B2) (A1) (A1) (A1)
 Harris functional with IExCor=  205 diagonalized for initial guess.
 ExpMin= 1.61D-01 ExpMax= 5.48D+03 ExpMxC= 8.25D+02 IAcc=1 IRadAn=         1 AccDes= 0.00D+00
 HarFok:  IExCor=  205 AccDes= 0.00D+00 IRadAn=         1 IDoV= 1
 ScaDFX=  1.000000  1.000000  1.000000  1.000000
 FoFCou: FMM=F IPFlag=           0 FMFlag=      100000 FMFlg1=           0
         NFxFlg=           0 DoJE=T BraDBF=F KetDBF=T FulRan=T
         Omega=  0.000000  0.000000  1.000000  0.000000  0.000000 ICntrl=     500 IOpCl=  0
         NMat0=    1 NMatS0=    1 NMatT0=    0 NMatD0=    1 NMtDS0=    0 NMtDT0=    0
         I1Cent=           4 NGrid=           0.
 Petite list used in FoFCou.
 Requested convergence on RMS density matrix=1.00D-08 within 128 cycles.
 Requested convergence on MAX density matrix=1.00D-06.
 Requested convergence on             energy=1.00D-06.
 No special actions if energy rises.
 Keep R1 ints in memory in canonical form, NReq=1019381.
 An orbital has undefined symmetry, so N**3 symmetry is turned off.
 Density matrix breaks symmetry, PCut= 1.00D-04
 Density has only Abelian symmetry.
 Density matrix breaks symmetry, PCut= 1.00D-07
 Density has only Abelian symmetry.
 Density matrix breaks symmetry, PCut= 1.00D-07
 Density has only Abelian symmetry.
 Density matrix breaks symmetry, PCut= 1.00D-07
 Density has only Abelian symmetry.
 Density matrix breaks symmetry, PCut= 1.00D-07
 Density has only Abelian symmetry.
 Density matrix breaks symmetry, PCut= 1.00D-07
 Density has only Abelian symmetry.
 Density matrix breaks symmetry, PCut= 1.00D-07
 Density has only Abelian symmetry.
 Density matrix breaks symmetry, PCut= 1.00D-07
 Density has only Abelian symmetry.
 Density matrix breaks symmetry, PCut= 1.00D-07
 Density has only Abelian symmetry.
 Density matrix breaks symmetry, PCut= 1.00D-07
 Density has only Abelian symmetry.
 Density matrix breaks symmetry, PCut= 1.00D-07
 Density has only Abelian symmetry.
 Density matrix breaks symmetry, PCut= 1.00D-07
 Density has only Abelian symmetry.
 SCF Done:  E(RHF) =  -113.865988522     A.U. after   14 cycles
             Convg  =    0.6422D-08             -V/T =  2.0018
 Calling FoFJK, ICntrl=      2127 FMM=F ISym2X=1 I1Cent= 0 IOpClX= 0 NMat=1 NMatS=1 NMatT=0.
 ***** Axes restored to original set *****
 -------------------------------------------------------------------
 Center     Atomic                   Forces (Hartrees/Bohr)
 Number     Number              X              Y              Z
 -------------------------------------------------------------------
      1        8          -0.000731001    0.003415120   -0.002754833
      2        6          -0.001558955    0.007283190   -0.005875042
      3        1           0.001191516   -0.006236781    0.003202214
      4        1           0.001098440   -0.004461529    0.005427661
 -------------------------------------------------------------------
 Cartesian Forces:  Max     0.007283190 RMS     0.004192458

 GradGradGradGradGradGradGradGradGradGradGradGradGradGradGradGradGradGrad
 Berny optimization.
 Using GEDIIS/GDIIS optimizer.
 Internal  Forces:  Max     0.007186630 RMS     0.004519834
 Search for a local minimum.
 Step number   2 out of a maximum of   20
 All quantities printed in internal units (Hartrees-Bohrs-Radians)
 Mixed Optimization -- RFO/linear search
 Update second derivatives using D2CorX and points    1    2
 DE= -8.97D-03 DEPred=-8.55D-03 R= 1.05D+00
 SS=  1.41D+00  RLast= 1.48D-01 DXNew= 5.0454D-01 4.4369D-01
 Trust test= 1.05D+00 RLast= 1.48D-01 DXMaxT set to 4.44D-01
 The second derivative matrix:
                          R1        R2        R3        A1        A2
           R1           0.87384
           R2           0.02864   0.36822
           R3           0.02864  -0.00408   0.36822
           A1           0.02352  -0.00164  -0.00164   0.15988
           A2           0.02352  -0.00164  -0.00164  -0.00012   0.15988
           A3          -0.04705   0.00327   0.00327   0.00024   0.00024
           D1           0.00000   0.00000   0.00000   0.00000   0.00000
                          A3        D1
           A3           0.15951
           D1           0.00000   0.00499
 Use linear search instead of GDIIS.
     Eigenvalues ---    0.00499   0.15427   0.16000   0.36143   0.37230
     Eigenvalues ---    0.881531000.00000
 RFO step:  Lambda=-6.25989534D-04 EMin= 4.99391805D-03
 Quartic linear search produced a step of -0.00501.
 Iteration  1 RMS(Cart)=  0.01899636 RMS(Int)=  0.00031674
 Iteration  2 RMS(Cart)=  0.00033018 RMS(Int)=  0.00000004
 Iteration  3 RMS(Cart)=  0.00000003 RMS(Int)=  0.00000000
 ClnCor:  largest displacement from symmetrization is 2.95D-09 for atom     2.
 Variable       Old X    -DE/DX   Delta X   Delta X   Delta X     New X
                                 (Linear)    (Quad)   (Total)
    R1        2.23811   0.00445   0.00070  -0.00034   0.00036   2.23847
    R2        2.04825   0.00478  -0.00013   0.01389   0.01376   2.06201
    R3        2.04825   0.00478  -0.00013   0.01389   0.01376   2.06201
    A1        2.10677   0.00359  -0.00006   0.02284   0.02277   2.12954
    A2        2.10677   0.00359  -0.00006   0.02284   0.02277   2.12954
    A3        2.06965  -0.00719   0.00012  -0.04567  -0.04555   2.02410
    D1        3.14159   0.00000   0.00000   0.00000   0.00000   3.14159
         Item               Value     Threshold  Converged?
 Maximum Force            0.007187     0.000450     NO 
 RMS     Force            0.004520     0.000300     NO 
 Maximum Displacement     0.026017     0.001800     NO 
 RMS     Displacement     0.019108     0.001200     NO 
 Predicted change in Energy=-3.121152D-04
 GradGradGradGradGradGradGradGradGradGradGradGradGradGradGradGradGradGrad

                          Input orientation:                          
 ---------------------------------------------------------------------
 Center     Atomic      Atomic             Coordinates (Angstroms)
 Number     Number       Type             X           Y           Z
 ---------------------------------------------------------------------
      1          8           0       -3.926919   -0.719220   -0.491370
      2          6           0       -3.732255   -1.628661    0.242238
      3          1           0       -3.606960   -2.649435   -0.122420
      4          1           0       -3.667428   -1.496108    1.323385
 ---------------------------------------------------------------------
                    Distance matrix (angstroms):
                    1          2          3          4
     1  O    0.000000
     2  C    1.184550   0.000000
     3  H    1.991037   1.091171   0.000000
     4  H    1.991037   1.091171   1.850451   0.000000
 Stoichiometry    CH2O
 Framework group  C2V[C2(CO),SGV(H2)]
 Deg. of freedom     3
 Full point group                 C2V     NOp   4
 Largest Abelian subgroup         C2V     NOp   4
 Largest concise Abelian subgroup C2      NOp   2
                         Standard orientation:                         
 ---------------------------------------------------------------------
 Center     Atomic      Atomic             Coordinates (Angstroms)
 Number     Number       Type             X           Y           Z
 ---------------------------------------------------------------------
      1          8           0        0.000000    0.000000    0.664582
      2          6           0        0.000000    0.000000   -0.519968
      3          1           0        0.000000    0.925226   -1.098423
      4          1           0        0.000000   -0.925226   -1.098423
 ---------------------------------------------------------------------
 Rotational constants (GHZ):    292.8914250     40.1636624     35.3202601
 Standard basis: 6-31G(d) (6D, 7F)
 There are    18 symmetry adapted basis functions of A1  symmetry.
 There are     2 symmetry adapted basis functions of A2  symmetry.
 There are     6 symmetry adapted basis functions of B1  symmetry.
 There are     8 symmetry adapted basis functions of B2  symmetry.
 Integral buffers will be    262144 words long.
 Raffenetti 1 integral format.
 Two-electron integral symmetry is turned on.
    34 basis functions,    64 primitive gaussians,    34 cartesian basis functions
     8 alpha electrons        8 beta electrons
       nuclear repulsion energy        31.8011734846 Hartrees.
 NAtoms=    4 NActive=    4 NUniq=    3 SFac= 1.33D+00 NAtFMM=   80 NAOKFM=F Big=F
 One-electron integrals computed using PRISM.
 NBasis=    34 RedAO= T  NBF=    18     2     6     8
 NBsUse=    34 1.00D-06 NBFU=    18     2     6     8
 Initial guess read from the read-write file.
 B after Tr=     0.000000    0.000000    0.000000
         Rot=    1.000000    0.000000    0.000000    0.000000 Ang=   0.00 deg.
 Initial guess orbital symmetries:
       Occupied  (A1) (A1) (A1) (A1) (B2) (A1) (B1) (B2)
       Virtual   (B1) (A1) (B2) (A1) (B1) (A1) (B2) (A1) (A1) (B2)
                 (A1) (B1) (B2) (A1) (A2) (B1) (A1) (B2) (A2) (A1)
                 (A1) (B1) (B2) (A1) (A1) (A1)
 Harris functional with IExCor=  205 diagonalized for initial guess.
 ExpMin= 1.61D-01 ExpMax= 5.48D+03 ExpMxC= 8.25D+02 IAcc=1 IRadAn=         1 AccDes= 0.00D+00
 HarFok:  IExCor=  205 AccDes= 0.00D+00 IRadAn=         1 IDoV= 1
 ScaDFX=  1.000000  1.000000  1.000000  1.000000
 FoFCou: FMM=F IPFlag=           0 FMFlag=      100000 FMFlg1=           0
         NFxFlg=           0 DoJE=T BraDBF=F KetDBF=T FulRan=T
         Omega=  0.000000  0.000000  1.000000  0.000000  0.000000 ICntrl=     500 IOpCl=  0
         NMat0=    1 NMatS0=    1 NMatT0=    0 NMatD0=    1 NMtDS0=    0 NMtDT0=    0
         I1Cent=           4 NGrid=           0.
 Petite list used in FoFCou.
 Requested convergence on RMS density matrix=1.00D-08 within 128 cycles.
 Requested convergence on MAX density matrix=1.00D-06.
 Requested convergence on             energy=1.00D-06.
 No special actions if energy rises.
 Keep R1 ints in memory in canonical form, NReq=1019381.
 SCF Done:  E(RHF) =  -113.866328316     A.U. after    9 cycles
             Convg  =    0.4482D-08             -V/T =  2.0020
 Calling FoFJK, ICntrl=      2127 FMM=F ISym2X=1 I1Cent= 0 IOpClX= 0 NMat=1 NMatS=1 NMatT=0.
 ***** Axes restored to original set *****
 -------------------------------------------------------------------
 Center     Atomic                   Forces (Hartrees/Bohr)
 Number     Number              X              Y              Z
 -------------------------------------------------------------------
      1        8           0.000004633   -0.000021642    0.000017458
      2        6          -0.000190158    0.000888386   -0.000716623
      3        1           0.000089925   -0.000379253    0.000417425
      4        1           0.000095600   -0.000487490    0.000281740
 -------------------------------------------------------------------
 Cartesian Forces:  Max     0.000888386 RMS     0.000407437

 GradGradGradGradGradGradGradGradGradGradGradGradGradGradGradGradGradGrad
 Berny optimization.
 Using GEDIIS/GDIIS optimizer.
 Internal  Forces:  Max     0.000721229 RMS     0.000355137
 Search for a local minimum.
 Step number   3 out of a maximum of   20
 All quantities printed in internal units (Hartrees-Bohrs-Radians)
 Mixed Optimization -- En-DIIS/RFO-DIIS
 Update second derivatives using D2CorX and points    1    2    3
 DE= -3.40D-04 DEPred=-3.12D-04 R= 1.09D+00
 SS=  1.41D+00  RLast= 5.91D-02 DXNew= 7.4619D-01 1.7725D-01
 Trust test= 1.09D+00 RLast= 5.91D-02 DXMaxT set to 4.44D-01
 The second derivative matrix:
                          R1        R2        R3        A1        A2
           R1           0.87703
           R2           0.02996   0.36799
           R3           0.02996  -0.00431   0.36799
           A1           0.02441  -0.00336  -0.00336   0.15760
           A2           0.02441  -0.00336  -0.00336  -0.00240   0.15760
           A3          -0.04881   0.00672   0.00672   0.00479   0.00479
           D1           0.00000   0.00000   0.00000   0.00000   0.00000
                          A3        D1
           A3           0.15042
           D1           0.00000   0.00499
 Use linear search instead of GDIIS.
     Eigenvalues ---    0.00499   0.13975   0.16000   0.36143   0.37230
     Eigenvalues ---    0.885161000.00000
 RFO step:  Lambda=-5.96958778D-07 EMin= 4.99391805D-03
 Quartic linear search produced a step of  0.09760.
 Iteration  1 RMS(Cart)=  0.00212899 RMS(Int)=  0.00000385
 Iteration  2 RMS(Cart)=  0.00000383 RMS(Int)=  0.00000000
 Iteration  3 RMS(Cart)=  0.00000000 RMS(Int)=  0.00000000
 ClnCor:  largest displacement from symmetrization is 1.47D-09 for atom     2.
 Variable       Old X    -DE/DX   Delta X   Delta X   Delta X     New X
                                 (Linear)    (Quad)   (Total)
    R1        2.23847  -0.00003   0.00004  -0.00056  -0.00052   2.23795
    R2        2.06201   0.00023   0.00134  -0.00054   0.00081   2.06282
    R3        2.06201   0.00023   0.00134  -0.00054   0.00081   2.06282
    A1        2.12954   0.00036   0.00222   0.00038   0.00260   2.13215
    A2        2.12954   0.00036   0.00222   0.00038   0.00260   2.13215
    A3        2.02410  -0.00072  -0.00445  -0.00076  -0.00521   2.01889
    D1        3.14159   0.00000   0.00000   0.00000   0.00000   3.14159
         Item               Value     Threshold  Converged?
 Maximum Force            0.000721     0.000450     NO 
 RMS     Force            0.000355     0.000300     NO 
 Maximum Displacement     0.003161     0.001800     NO 
 RMS     Displacement     0.002130     0.001200     NO 
 Predicted change in Energy=-3.003401D-06
 GradGradGradGradGradGradGradGradGradGradGradGradGradGradGradGradGradGrad

                          Input orientation:                          
 ---------------------------------------------------------------------
 Center     Atomic      Atomic             Coordinates (Angstroms)
 Number     Number       Type             X           Y           Z
 ---------------------------------------------------------------------
      1          8           0       -3.927102   -0.718368   -0.492058
      2          6           0       -3.732483   -1.627597    0.241379
      3          1           0       -3.606792   -2.649678   -0.120751
      4          1           0       -3.667186   -1.497781    1.323262
 ---------------------------------------------------------------------
                    Distance matrix (angstroms):
                    1          2          3          4
     1  O    0.000000
     2  C    1.184274   0.000000
     3  H    1.992593   1.091598   0.000000
     4  H    1.992593   1.091598   1.848158   0.000000
 Stoichiometry    CH2O
 Framework group  C2V[C2(CO),SGV(H2)]
 Deg. of freedom     3
 Full point group                 C2V     NOp   4
 Largest Abelian subgroup         C2V     NOp   4
 Largest concise Abelian subgroup C2      NOp   2
                         Standard orientation:                         
 ---------------------------------------------------------------------
 Center     Atomic      Atomic             Coordinates (Angstroms)
 Number     Number       Type             X           Y           Z
 ---------------------------------------------------------------------
      1          8           0        0.000000    0.000000    0.664773
      2          6           0        0.000000    0.000000   -0.519501
      3          1           0        0.000000    0.924079   -1.100590
      4          1           0        0.000000   -0.924079   -1.100590
 ---------------------------------------------------------------------
 Rotational constants (GHZ):    293.6188061     40.1406502     35.3130063
 Standard basis: 6-31G(d) (6D, 7F)
 There are    18 symmetry adapted basis functions of A1  symmetry.
 There are     2 symmetry adapted basis functions of A2  symmetry.
 There are     6 symmetry adapted basis functions of B1  symmetry.
 There are     8 symmetry adapted basis functions of B2  symmetry.
 Integral buffers will be    262144 words long.
 Raffenetti 1 integral format.
 Two-electron integral symmetry is turned on.
    34 basis functions,    64 primitive gaussians,    34 cartesian basis functions
     8 alpha electrons        8 beta electrons
       nuclear repulsion energy        31.8009292107 Hartrees.
 NAtoms=    4 NActive=    4 NUniq=    3 SFac= 1.33D+00 NAtFMM=   80 NAOKFM=F Big=F
 One-electron integrals computed using PRISM.
 NBasis=    34 RedAO= T  NBF=    18     2     6     8
 NBsUse=    34 1.00D-06 NBFU=    18     2     6     8
 Initial guess read from the read-write file.
 B after Tr=     0.000000    0.000000    0.000000
         Rot=    1.000000    0.000000    0.000000    0.000000 Ang=   0.00 deg.
 Initial guess orbital symmetries:
       Occupied  (A1) (A1) (A1) (A1) (B2) (A1) (B1) (B2)
       Virtual   (B1) (A1) (B2) (A1) (B1) (A1) (B2) (A1) (B2) (A1)
                 (A1) (B1) (B2) (A1) (A2) (B1) (A1) (B2) (A2) (A1)
                 (A1) (B1) (B2) (A1) (A1) (A1)
 Requested convergence on RMS density matrix=1.00D-08 within 128 cycles.
 Requested convergence on MAX density matrix=1.00D-06.
 Requested convergence on             energy=1.00D-06.
 No special actions if energy rises.
 Keep R1 ints in memory in canonical form, NReq=1019381.
 SCF Done:  E(RHF) =  -113.866331245     A.U. after    8 cycles
             Convg  =    0.6748D-08             -V/T =  2.0020
 Calling FoFJK, ICntrl=      2127 FMM=F ISym2X=1 I1Cent= 0 IOpClX= 0 NMat=1 NMatS=1 NMatT=0.
 ***** Axes restored to original set *****
 -------------------------------------------------------------------
 Center     Atomic                   Forces (Hartrees/Bohr)
 Number     Number              X              Y              Z
 -------------------------------------------------------------------
      1        8          -0.000024058    0.000112396   -0.000090665
      2        6           0.000022792   -0.000106482    0.000085895
      3        1           0.000001515   -0.000019776   -0.000018700
      4        1          -0.000000249    0.000013863    0.000023470
 -------------------------------------------------------------------
 Cartesian Forces:  Max     0.000112396 RMS     0.000059269

 GradGradGradGradGradGradGradGradGradGradGradGradGradGradGradGradGradGrad
 Berny optimization.
 Using GEDIIS/GDIIS optimizer.
 Internal  Forces:  Max     0.000146396 RMS     0.000057348
 Search for a local minimum.
 Step number   4 out of a maximum of   20
 All quantities printed in internal units (Hartrees-Bohrs-Radians)
 Mixed Optimization -- En-DIIS/RFO-DIIS
 Swaping is turned off.
 Update second derivatives using D2CorX and points    1    2    3    4
 DE= -2.93D-06 DEPred=-3.00D-06 R= 9.75D-01
 SS=  1.41D+00  RLast= 6.50D-03 DXNew= 7.4619D-01 1.9494D-02
 Trust test= 9.75D-01 RLast= 6.50D-03 DXMaxT set to 4.44D-01
 The second derivative matrix:
                          R1        R2        R3        A1        A2
           R1           0.87908
           R2           0.02596   0.36574
           R3           0.02596  -0.00656   0.36574
           A1           0.01551  -0.00486  -0.00486   0.15794
           A2           0.01551  -0.00486  -0.00486  -0.00206   0.15794
           A3          -0.03103   0.00973   0.00973   0.00413   0.00413
           D1           0.00000   0.00000   0.00000   0.00000   0.00000
                          A3        D1
           A3           0.15174
           D1           0.00000   0.00499
     Eigenvalues ---    0.00499   0.14400   0.16000   0.35837   0.37230
     Eigenvalues ---    0.883491000.00000
 En-DIIS/RFO-DIIS IScMMF=        0 using points:     4    3
 RFO step:  Lambda=-2.58295589D-08.
 DIIS coeffs:      0.97479      0.02521
 Iteration  1 RMS(Cart)=  0.00007714 RMS(Int)=  0.00000001
 Iteration  2 RMS(Cart)=  0.00000000 RMS(Int)=  0.00000000
 ClnCor:  largest displacement from symmetrization is 5.91D-09 for atom     2.
 Variable       Old X    -DE/DX   Delta X   Delta X   Delta X     New X
                                  (DIIS)     (GDIIS)  (Total)
    R1        2.23795   0.00015   0.00001   0.00016   0.00017   2.23812
    R2        2.06282   0.00002  -0.00002   0.00007   0.00005   2.06287
    R3        2.06282   0.00002  -0.00002   0.00007   0.00005   2.06287
    A1        2.13215  -0.00001  -0.00007   0.00000  -0.00007   2.13208
    A2        2.13215  -0.00001  -0.00007   0.00000  -0.00007   2.13208
    A3        2.01889   0.00002   0.00013   0.00000   0.00013   2.01903
    D1        3.14159   0.00000   0.00000   0.00000   0.00000   3.14159
         Item               Value     Threshold  Converged?
 Maximum Force            0.000146     0.000450     YES
 RMS     Force            0.000057     0.000300     YES
 Maximum Displacement     0.000092     0.001800     YES
 RMS     Displacement     0.000077     0.001200     YES
 Predicted change in Energy=-1.528249D-08
 Optimization completed.
    -- Stationary point found.
                           ----------------------------
                           !   Optimized Parameters   !
                           ! (Angstroms and Degrees)  !
 --------------------------                            --------------------------
 ! Name  Definition              Value          Derivative Info.                !
 --------------------------------------------------------------------------------
 ! R1    R(1,2)                  1.1843         -DE/DX =    0.0001              !
 ! R2    R(2,3)                  1.0916         -DE/DX =    0.0                 !
 ! R3    R(2,4)                  1.0916         -DE/DX =    0.0                 !
 ! A1    A(1,2,3)              122.1629         -DE/DX =    0.0                 !
 ! A2    A(1,2,4)              122.1629         -DE/DX =    0.0                 !
 ! A3    A(3,2,4)              115.6741         -DE/DX =    0.0                 !
 ! D1    D(1,2,4,3)            180.0            -DE/DX =    0.0                 !
 --------------------------------------------------------------------------------
 GradGradGradGradGradGradGradGradGradGradGradGradGradGradGradGradGradGrad

                          Input orientation:                          
 ---------------------------------------------------------------------
 Center     Atomic      Atomic             Coordinates (Angstroms)
 Number     Number       Type             X           Y           Z
 ---------------------------------------------------------------------
      1          8           0       -3.927102   -0.718368   -0.492058
      2          6           0       -3.732483   -1.627597    0.241379
      3          1           0       -3.606792   -2.649678   -0.120751
      4          1           0       -3.667186   -1.497781    1.323262
 ---------------------------------------------------------------------
                    Distance matrix (angstroms):
                    1          2          3          4
     1  O    0.000000
     2  C    1.184274   0.000000
     3  H    1.992593   1.091598   0.000000
     4  H    1.992593   1.091598   1.848158   0.000000
 Stoichiometry    CH2O
 Framework group  C2V[C2(CO),SGV(H2)]
 Deg. of freedom     3
 Full point group                 C2V     NOp   4
 Largest Abelian subgroup         C2V     NOp   4
 Largest concise Abelian subgroup C2      NOp   2
                         Standard orientation:                         
 ---------------------------------------------------------------------
 Center     Atomic      Atomic             Coordinates (Angstroms)
 Number     Number       Type             X           Y           Z
 ---------------------------------------------------------------------
      1          8           0        0.000000    0.000000    0.664773
      2          6           0        0.000000    0.000000   -0.519501
      3          1           0        0.000000    0.924079   -1.100590
      4          1           0        0.000000   -0.924079   -1.100590
 ---------------------------------------------------------------------
 Rotational constants (GHZ):    293.6188061     40.1406502     35.3130063

 **********************************************************************

            Population analysis using the SCF density.

 **********************************************************************

 Orbital symmetries:
       Occupied  (A1) (A1) (A1) (A1) (B2) (A1) (B1) (B2)
       Virtual   (B1) (A1) (B2) (A1) (B1) (A1) (B2) (A1) (B2) (A1)
                 (A1) (B1) (B2) (A1) (A2) (B1) (A1) (B2) (A2) (A1)
                 (A1) (B1) (B2) (A1) (A1) (A1)
 The electronic state is 1-A1.
 Alpha  occ. eigenvalues --  -20.58308 -11.33666  -1.41738  -0.86827  -0.69740
 Alpha  occ. eigenvalues --   -0.65285  -0.54021  -0.43546
 Alpha virt. eigenvalues --    0.14586   0.24990   0.33950   0.37502   0.73281
 Alpha virt. eigenvalues --    0.82827   0.83122   0.99178   1.09298   1.09690
 Alpha virt. eigenvalues --    1.14250   1.26861   1.33410   1.63003   1.77153
 Alpha virt. eigenvalues --    1.81436   1.96925   2.19897   2.25088   2.46955
 Alpha virt. eigenvalues --    2.68238   2.90742   3.03566   3.32006   4.12229
 Alpha virt. eigenvalues --    4.48125
          Condensed to atoms (all electrons):
              1          2          3          4
     1  O    7.981439   0.543302  -0.054538  -0.054538
     2  C    0.543302   4.570696   0.375671   0.375671
     3  H   -0.054538   0.375671   0.612888  -0.074523
     4  H   -0.054538   0.375671  -0.074523   0.612888
 Mulliken atomic charges:
              1
     1  O   -0.415665
     2  C    0.134660
     3  H    0.140503
     4  H    0.140503
 Sum of Mulliken atomic charges =   0.00000
 Mulliken charges with hydrogens summed into heavy atoms:
              1
     1  O   -0.415665
     2  C    0.415665
 Sum of Mulliken charges with hydrogens summed into heavy atoms =   0.00000
 Electronic spatial extent (au):  <R**2>=             59.0657
 Charge=              0.0000 electrons
 Dipole moment (field-independent basis, Debye):
    X=              0.0000    Y=              0.0000    Z=             -2.6659  Tot=              2.6659
 Quadrupole moment (field-independent basis, Debye-Ang):
   XX=            -11.4483   YY=            -11.4805   ZZ=            -11.9183
   XY=              0.0000   XZ=              0.0000   YZ=              0.0000
 Traceless Quadrupole moment (field-independent basis, Debye-Ang):
   XX=              0.1674   YY=              0.1352   ZZ=             -0.3026
   XY=              0.0000   XZ=              0.0000   YZ=              0.0000
 Octapole moment (field-independent basis, Debye-Ang**2):
  XXX=              0.0000  YYY=              0.0000  ZZZ=              0.3339  XYY=              0.0000
  XXY=              0.0000  XXZ=              0.6050  XZZ=              0.0000  YZZ=              0.0000
  YYZ=             -0.2715  XYZ=              0.0000
 Hexadecapole moment (field-independent basis, Debye-Ang**3):
 XXXX=             -9.2691 YYYY=            -17.2047 ZZZZ=            -42.5975 XXXY=              0.0000
 XXXZ=              0.0000 YYYX=              0.0000 YYYZ=              0.0000 ZZZX=              0.0000
 ZZZY=              0.0000 XXYY=             -4.6462 XXZZ=             -8.6410 YYZZ=             -9.6274
 XXYZ=              0.0000 YYXZ=              0.0000 ZZXY=              0.0000
 N-N= 3.180092921071D+01 E-N=-3.319076562228D+02  KE= 1.136357618230D+02
 Symmetry A1   KE= 1.034250502546D+02
 Symmetry A2   KE= 3.206957997594D-32
 Symmetry B1   KE= 3.488170241153D+00
 Symmetry B2   KE= 6.722541327253D+00
 1|1|UNPC-CB217-2014-05|FOpt|RHF|6-31G(d)|C1H2O1|KE7KTO|03-Feb-2015|0||
 # opt freq hf/6-31g(d) geom=connectivity||Title Card Required||0,1|O,-
 3.9271018532,-0.7183675539,-0.4920576831|C,-3.7324828002,-1.6275968139
 ,0.2413791715|H,-3.6067921281,-2.649678074,-0.1207509179|H,-3.66718551
 84,-1.4977808972,1.3232620403||Version=IA32W-G09RevA.02|State=1-A1|HF=
 -113.8663312|RMSD=6.748e-009|RMSF=5.927e-005|Dipole=0.172365,-0.805261
 6,0.6495706|Quadrupole=0.1150087,-0.0908202,-0.0241885,0.0445786,-0.03
 49543,0.1544908|PG=C02V [C2(C1O1),SGV(H2)]||@


 THE CAUTIOUS SELDOM ERR...CONFUCIUS                   
 Job cpu time:  0 days  0 hours  0 minutes 10.0 seconds.
 File lengths (MBytes):  RWF=      5 Int=      0 D2E=      0 Chk=      1 Scr=      1
 Normal termination of Gaussian 09 at Tue Feb 03 18:19:08 2015.
 Link1:  Proceeding to internal job step number  2.
 -----------------------------------------------------------------
 #N Geom=AllCheck Guess=TCheck SCRF=Check GenChk RHF/6-31G(d) Freq
 -----------------------------------------------------------------
 1/10=4,29=7,30=1,38=1,40=1/1,3;
 2/12=2,40=1/2;
 3/5=1,6=6,7=1,11=1,14=-4,16=1,25=1,30=1,70=2,71=2,116=1/1,2,3;
 4/5=101/1;
 5/5=2,98=1/2;
 8/6=4,10=90,11=11/1;
 10/13=10,15=4/2;
 11/6=3,8=1,9=11,15=111,16=1/1,2,10;
 10/6=1/2;
 6/7=2,8=2,9=2,10=2,18=1,28=1/1;
 7/8=1,10=1,25=1/1,2,3,16;
 1/10=4,30=1/3;
 99//99;
 -------------------
 Title Card Required
 -------------------
 Redundant internal coordinates taken from checkpoint file:
 J:\che513\mediumProject\HCO2opt_freq.chk
 Charge =  0 Multiplicity = 1
 O,0,-3.9271018532,-0.7183675539,-0.4920576831
 C,0,-3.7324828002,-1.6275968139,0.2413791715
 H,0,-3.6067921281,-2.649678074,-0.1207509179
 H,0,-3.6671855184,-1.4977808972,1.3232620403
 Recover connectivity data from disk.

 GradGradGradGradGradGradGradGradGradGradGradGradGradGradGradGradGradGrad
 Berny optimization.
 Initialization pass.
                           ----------------------------
                           !    Initial Parameters    !
                           ! (Angstroms and Degrees)  !
 --------------------------                            --------------------------
 ! Name  Definition              Value          Derivative Info.                !
 --------------------------------------------------------------------------------
 ! R1    R(1,2)                  1.1843         calculate D2E/DX2 analytically  !
 ! R2    R(2,3)                  1.0916         calculate D2E/DX2 analytically  !
 ! R3    R(2,4)                  1.0916         calculate D2E/DX2 analytically  !
 ! A1    A(1,2,3)              122.1629         calculate D2E/DX2 analytically  !
 ! A2    A(1,2,4)              122.1629         calculate D2E/DX2 analytically  !
 ! A3    A(3,2,4)              115.6741         calculate D2E/DX2 analytically  !
 ! D1    D(1,2,4,3)            180.0            calculate D2E/DX2 analytically  !
 --------------------------------------------------------------------------------
 Trust Radius=3.00D-01 FncErr=1.00D-07 GrdErr=1.00D-07
 Number of steps in this run=   2 maximum allowed number of steps=   2.
 GradGradGradGradGradGradGradGradGradGradGradGradGradGradGradGradGradGrad

                          Input orientation:                          
 ---------------------------------------------------------------------
 Center     Atomic      Atomic             Coordinates (Angstroms)
 Number     Number       Type             X           Y           Z
 ---------------------------------------------------------------------
      1          8           0       -3.927102   -0.718368   -0.492058
      2          6           0       -3.732483   -1.627597    0.241379
      3          1           0       -3.606792   -2.649678   -0.120751
      4          1           0       -3.667186   -1.497781    1.323262
 ---------------------------------------------------------------------
                    Distance matrix (angstroms):
                    1          2          3          4
     1  O    0.000000
     2  C    1.184274   0.000000
     3  H    1.992593   1.091598   0.000000
     4  H    1.992593   1.091598   1.848158   0.000000
 Stoichiometry    CH2O
 Framework group  C2V[C2(CO),SGV(H2)]
 Deg. of freedom     3
 Full point group                 C2V     NOp   4
 Largest Abelian subgroup         C2V     NOp   4
 Largest concise Abelian subgroup C2      NOp   2
                         Standard orientation:                         
 ---------------------------------------------------------------------
 Center     Atomic      Atomic             Coordinates (Angstroms)
 Number     Number       Type             X           Y           Z
 ---------------------------------------------------------------------
      1          8           0        0.000000    0.000000    0.664773
      2          6           0        0.000000    0.000000   -0.519501
      3          1           0        0.000000    0.924079   -1.100590
      4          1           0        0.000000   -0.924079   -1.100590
 ---------------------------------------------------------------------
 Rotational constants (GHZ):    293.6188061     40.1406502     35.3130063
 Standard basis: 6-31G(d) (6D, 7F)
 There are    18 symmetry adapted basis functions of A1  symmetry.
 There are     2 symmetry adapted basis functions of A2  symmetry.
 There are     6 symmetry adapted basis functions of B1  symmetry.
 There are     8 symmetry adapted basis functions of B2  symmetry.
 Integral buffers will be    262144 words long.
 Raffenetti 1 integral format.
 Two-electron integral symmetry is turned on.
    34 basis functions,    64 primitive gaussians,    34 cartesian basis functions
     8 alpha electrons        8 beta electrons
       nuclear repulsion energy        31.8009292107 Hartrees.
 NAtoms=    4 NActive=    4 NUniq=    3 SFac= 1.33D+00 NAtFMM=   80 NAOKFM=F Big=F
 One-electron integrals computed using PRISM.
 NBasis=    34 RedAO= T  NBF=    18     2     6     8
 NBsUse=    34 1.00D-06 NBFU=    18     2     6     8
 Initial guess read from the checkpoint file:  J:\che513\mediumProject\HCO2opt_fr
 eq.chk
 B after Tr=     0.000000    0.000000    0.000000
         Rot=    1.000000    0.000000    0.000000    0.000000 Ang=   0.00 deg.
 Initial guess orbital symmetries:
       Occupied  (A1) (A1) (A1) (A1) (B2) (A1) (B1) (B2)
       Virtual   (B1) (A1) (B2) (A1) (B1) (A1) (B2) (A1) (B2) (A1)
                 (A1) (B1) (B2) (A1) (A2) (B1) (A1) (B2) (A2) (A1)
                 (A1) (B1) (B2) (A1) (A1) (A1)
 Requested convergence on RMS density matrix=1.00D-08 within 128 cycles.
 Requested convergence on MAX density matrix=1.00D-06.
 Requested convergence on             energy=1.00D-06.
 No special actions if energy rises.
 Keep R1 ints in memory in canonical form, NReq=1019381.
 SCF Done:  E(RHF) =  -113.866331245     A.U. after    1 cycles
             Convg  =    0.8029D-09             -V/T =  2.0020
 Range of M.O.s used for correlation:     1    34
 NBasis=    34 NAE=     8 NBE=     8 NFC=     0 NFV=     0
 NROrb=     34 NOA=     8 NOB=     8 NVA=    26 NVB=    26
          Differentiating once with respect to electric field.
                with respect to dipole field.
          Electric field/nuclear overlap derivatives assumed to be zero.
          Keep R1 ints in memory in canonical form, NReq=997678.
          There are     3 degrees of freedom in the 1st order CPHF.  IDoFFX=0.
      3 vectors produced by pass  0 Test12= 6.93D-15 3.33D-08 XBig12= 4.75D+00 1.56D+00.
 AX will form     3 AO Fock derivatives at one time.
      3 vectors produced by pass  1 Test12= 6.93D-15 3.33D-08 XBig12= 5.38D-01 3.26D-01.
      3 vectors produced by pass  2 Test12= 6.93D-15 3.33D-08 XBig12= 4.61D-02 1.02D-01.
      3 vectors produced by pass  3 Test12= 6.93D-15 3.33D-08 XBig12= 1.48D-03 1.50D-02.
      3 vectors produced by pass  4 Test12= 6.93D-15 3.33D-08 XBig12= 1.92D-05 2.06D-03.
      3 vectors produced by pass  5 Test12= 6.93D-15 3.33D-08 XBig12= 5.22D-07 3.12D-04.
      3 vectors produced by pass  6 Test12= 6.93D-15 3.33D-08 XBig12= 1.89D-08 5.74D-05.
      3 vectors produced by pass  7 Test12= 6.93D-15 3.33D-08 XBig12= 2.31D-10 7.10D-06.
      1 vectors produced by pass  8 Test12= 6.93D-15 3.33D-08 XBig12= 1.41D-12 5.31D-07.
      1 vectors produced by pass  9 Test12= 6.93D-15 3.33D-08 XBig12= 2.18D-14 6.66D-08.
 Inverted reduced A of dimension    26 with in-core refinement.
 End of Minotr Frequency-dependent properties file   721 does not exist.
 End of Minotr Frequency-dependent properties file   722 does not exist.
 Symmetrizing basis deriv contribution to polar:
 IMax=3 JMax=2 DiffMx= 0.00D+00
 G2DrvN: will do     5 centers at a time, making    1 passes doing MaxLOS=2.
 Calling FoFCou, ICntrl=  3107 FMM=F I1Cent=   0 AccDes= 0.00D+00.
 FoFDir/FoFCou used for L=0 through L=2.
 End of G2Drv Frequency-dependent properties file   721 does not exist.
 End of G2Drv Frequency-dependent properties file   722 does not exist.
          IDoAtm=1111
          Differentiating once with respect to electric field.
                with respect to dipole field.
          Differentiating once with respect to nuclear coordinates.
          Keep R1 ints in memory in canonical form, NReq=997726.
          There are    12 degrees of freedom in the 1st order CPHF.  IDoFFX=4.
 Will reuse    3 saved solutions.
      9 vectors produced by pass  0 Test12= 1.73D-15 8.33D-09 XBig12= 8.70D-02 1.25D-01.
 AX will form     9 AO Fock derivatives at one time.
      9 vectors produced by pass  1 Test12= 1.73D-15 8.33D-09 XBig12= 6.75D-03 4.27D-02.
      9 vectors produced by pass  2 Test12= 1.73D-15 8.33D-09 XBig12= 1.82D-04 4.19D-03.
      9 vectors produced by pass  3 Test12= 1.73D-15 8.33D-09 XBig12= 2.09D-06 4.72D-04.
      9 vectors produced by pass  4 Test12= 1.73D-15 8.33D-09 XBig12= 1.29D-08 4.82D-05.
      9 vectors produced by pass  5 Test12= 1.73D-15 8.33D-09 XBig12= 4.09D-11 2.29D-06.
      8 vectors produced by pass  6 Test12= 1.73D-15 8.33D-09 XBig12= 2.27D-13 1.25D-07.
      1 vectors produced by pass  7 Test12= 1.73D-15 8.33D-09 XBig12= 1.05D-15 1.16D-08.
 Inverted reduced A of dimension    63 with in-core refinement.
 Isotropic polarizability for W=    0.000000       12.35 Bohr**3.
 End of Minotr Frequency-dependent properties file   721 does not exist.
 End of Minotr Frequency-dependent properties file   722 does not exist.

 **********************************************************************

            Population analysis using the SCF density.

 **********************************************************************

 Orbital symmetries:
       Occupied  (A1) (A1) (A1) (A1) (B2) (A1) (B1) (B2)
       Virtual   (B1) (A1) (B2) (A1) (B1) (A1) (B2) (A1) (B2) (A1)
                 (A1) (B1) (B2) (A1) (A2) (B1) (A1) (B2) (A2) (A1)
                 (A1) (B1) (B2) (A1) (A1) (A1)
 The electronic state is 1-A1.
 Alpha  occ. eigenvalues --  -20.58308 -11.33666  -1.41738  -0.86827  -0.69740
 Alpha  occ. eigenvalues --   -0.65285  -0.54021  -0.43546
 Alpha virt. eigenvalues --    0.14586   0.24990   0.33950   0.37502   0.73281
 Alpha virt. eigenvalues --    0.82827   0.83122   0.99178   1.09298   1.09690
 Alpha virt. eigenvalues --    1.14250   1.26861   1.33410   1.63003   1.77153
 Alpha virt. eigenvalues --    1.81436   1.96925   2.19897   2.25088   2.46955
 Alpha virt. eigenvalues --    2.68238   2.90742   3.03566   3.32006   4.12229
 Alpha virt. eigenvalues --    4.48125
          Condensed to atoms (all electrons):
              1          2          3          4
     1  O    7.981439   0.543302  -0.054538  -0.054538
     2  C    0.543302   4.570696   0.375671   0.375671
     3  H   -0.054538   0.375671   0.612888  -0.074523
     4  H   -0.054538   0.375671  -0.074523   0.612888
 Mulliken atomic charges:
              1
     1  O   -0.415665
     2  C    0.134660
     3  H    0.140503
     4  H    0.140503
 Sum of Mulliken atomic charges =   0.00000
 Mulliken charges with hydrogens summed into heavy atoms:
              1
     1  O   -0.415665
     2  C    0.415665
 Sum of Mulliken charges with hydrogens summed into heavy atoms =   0.00000
 APT atomic charges:
              1
     1  O   -0.675157
     2  C    0.800312
     3  H   -0.062577
     4  H   -0.062577
 Sum of APT charges=   0.00000
 APT Atomic charges with hydrogens summed into heavy atoms:
              1
     1  O   -0.675157
     2  C    0.675157
     3  H    0.000000
     4  H    0.000000
 Sum of APT charges=   0.00000
 Electronic spatial extent (au):  <R**2>=             59.0657
 Charge=              0.0000 electrons
 Dipole moment (field-independent basis, Debye):
    X=              0.0000    Y=              0.0000    Z=             -2.6659  Tot=              2.6659
 Quadrupole moment (field-independent basis, Debye-Ang):
   XX=            -11.4483   YY=            -11.4805   ZZ=            -11.9183
   XY=              0.0000   XZ=              0.0000   YZ=              0.0000
 Traceless Quadrupole moment (field-independent basis, Debye-Ang):
   XX=              0.1674   YY=              0.1352   ZZ=             -0.3026
   XY=              0.0000   XZ=              0.0000   YZ=              0.0000
 Octapole moment (field-independent basis, Debye-Ang**2):
  XXX=              0.0000  YYY=              0.0000  ZZZ=              0.3339  XYY=              0.0000
  XXY=              0.0000  XXZ=              0.6050  XZZ=              0.0000  YZZ=              0.0000
  YYZ=             -0.2715  XYZ=              0.0000
 Hexadecapole moment (field-independent basis, Debye-Ang**3):
 XXXX=             -9.2691 YYYY=            -17.2047 ZZZZ=            -42.5975 XXXY=              0.0000
 XXXZ=              0.0000 YYYX=              0.0000 YYYZ=              0.0000 ZZZX=              0.0000
 ZZZY=              0.0000 XXYY=             -4.6462 XXZZ=             -8.6410 YYZZ=             -9.6274
 XXYZ=              0.0000 YYXZ=              0.0000 ZZXY=              0.0000
 N-N= 3.180092921071D+01 E-N=-3.319076561932D+02  KE= 1.136357618063D+02
 Symmetry A1   KE= 1.034250502049D+02
 Symmetry A2   KE= 3.498313169185D-32
 Symmetry B1   KE= 3.488170236193D+00
 Symmetry B2   KE= 6.722541365213D+00
  Exact polarizability:   6.478   0.000  12.915   0.000   0.000  17.643
 Approx polarizability:   6.256   0.000  10.132   0.000   0.000  16.191
 Calling FoFJK, ICntrl=    100127 FMM=F ISym2X=1 I1Cent= 0 IOpClX= 0 NMat=1 NMatS=1 NMatT=0.
 Full mass-weighted force constant matrix:
 Low frequencies ---  -20.1283  -14.9165  -14.0552   -0.0014   -0.0011    0.0001
 Low frequencies --- 1335.9288 1383.2202 1679.7442
 Diagonal vibrational polarizability:
        0.0055100       0.6762355       1.1990633
 Diagonal vibrational hyperpolarizability:
        0.0000000       0.0000000      -8.2579663
 Harmonic frequencies (cm**-1), IR intensities (KM/Mole), Raman scattering
 activities (A**4/AMU), depolarization ratios for plane and unpolarized
 incident light, reduced masses (AMU), force constants (mDyne/A),
 and normal coordinates:
                     1                      2                      3
                    B1                     B2                     A1
 Frequencies --  1335.9288              1383.2202              1679.7442
 Red. masses --     1.3690                 1.3442                 1.1041
 Frc consts  --     1.4396                 1.5153                 1.8354
 IR Inten    --     0.3654                23.1624                 8.6378
 Raman Activ --     0.7666                 4.5071                12.8671
 Depolar (P) --     0.7500                 0.7500                 0.5902
 Depolar (U) --     0.8571                 0.8571                 0.7423
  Atom  AN      X      Y      Z        X      Y      Z        X      Y      Z
     1   8     0.04   0.00   0.00     0.00   0.08   0.00     0.00   0.00   0.08
     2   6    -0.17   0.00   0.00     0.00  -0.15   0.00     0.00   0.00   0.00
     3   1     0.70   0.00   0.00     0.00   0.25   0.65     0.00  -0.35  -0.61
     4   1     0.70   0.00   0.00     0.00   0.25  -0.65     0.00   0.35  -0.61
                     4                      5                      6
                    A1                     A1                     B2
 Frequencies --  2028.2363              3160.3253              3231.9364
 Red. masses --     7.2414                 1.0491                 1.1206
 Frc consts  --    17.5512                 6.1734                 6.8962
 IR Inten    --   150.2039                49.7605               136.0240
 Raman Activ --     8.1010               137.6144                58.3253
 Depolar (P) --     0.3279                 0.1827                 0.7500
 Depolar (U) --     0.4939                 0.3090                 0.8571
  Atom  AN      X      Y      Z        X      Y      Z        X      Y      Z
     1   8     0.00   0.00   0.41     0.00   0.00   0.00     0.00   0.00   0.00
     2   6     0.00   0.00  -0.58     0.00   0.00   0.06     0.00   0.10   0.00
     3   1     0.00   0.46   0.19     0.00   0.61  -0.35     0.00  -0.60   0.37
     4   1     0.00  -0.46   0.19     0.00  -0.61  -0.35     0.00  -0.60  -0.37

 -------------------
 - Thermochemistry -
 -------------------
 Temperature   298.150 Kelvin.  Pressure   1.00000 Atm.
 Atom     1 has atomic number  8 and mass  15.99491
 Atom     2 has atomic number  6 and mass  12.00000
 Atom     3 has atomic number  1 and mass   1.00783
 Atom     4 has atomic number  1 and mass   1.00783
 Molecular mass:    30.01056 amu.
 Principal axes and moments of inertia in atomic units:
                           1         2         3
     Eigenvalues --     6.14654  44.96044  51.10698
           X            0.00000   0.00000   1.00000
           Y            0.00000   1.00000   0.00000
           Z            1.00000   0.00000   0.00000
 This molecule is an asymmetric top.
 Rotational symmetry number  2.
 Rotational temperatures (Kelvin)     14.09146     1.92645     1.69475
 Rotational constants (GHZ):         293.61881    40.14065    35.31301
 Zero-point vibrational energy      76677.0 (Joules/Mol)
                                   18.32624 (Kcal/Mol)
 Vibrational temperatures:   1922.10  1990.14  2416.77  2918.18  4547.00
          (Kelvin)           4650.03
 
 Zero-point correction=                           0.029205 (Hartree/Particle)
 Thermal correction to Energy=                    0.032058
 Thermal correction to Enthalpy=                  0.033002
 Thermal correction to Gibbs Free Energy=         0.008248
 Sum of electronic and zero-point Energies=           -113.837127
 Sum of electronic and thermal Energies=              -113.834273
 Sum of electronic and thermal Enthalpies=            -113.833329
 Sum of electronic and thermal Free Energies=         -113.858084
 
                     E (Thermal)             CV                S
                      KCal/Mol        Cal/Mol-Kelvin    Cal/Mol-Kelvin
 Total                   20.117              6.255             52.100
 Electronic               0.000              0.000              0.000
 Translational            0.889              2.981             36.130
 Rotational               0.889              2.981             15.920
 Vibrational             18.339              0.294              0.049
                       Q            Log10(Q)             Ln(Q)
 Total Bot       0.160819D-03         -3.793664         -8.735234
 Total V=0       0.436061D+10          9.639547         22.195877
 Vib (Bot)       0.369983D-13        -13.431818        -30.927903
 Vib (V=0)       0.100321D+01          0.001393          0.003208
 Electronic      0.100000D+01          0.000000          0.000000
 Translational   0.646199D+07          6.810366         15.681448
 Rotational      0.672647D+03          2.827787          6.511221
 ***** Axes restored to original set *****
 -------------------------------------------------------------------
 Center     Atomic                   Forces (Hartrees/Bohr)
 Number     Number              X              Y              Z
 -------------------------------------------------------------------
      1        8          -0.000024058    0.000112396   -0.000090665
      2        6           0.000022792   -0.000106480    0.000085893
      3        1           0.000001515   -0.000019777   -0.000018699
      4        1          -0.000000249    0.000013862    0.000023471
 -------------------------------------------------------------------
 Cartesian Forces:  Max     0.000112396 RMS     0.000059269

 GradGradGradGradGradGradGradGradGradGradGradGradGradGradGradGradGradGrad
 Berny optimization.
 Internal  Forces:  Max     0.000146396 RMS     0.000057347
 Search for a local minimum.
 Step number   1 out of a maximum of    2
 All quantities printed in internal units (Hartrees-Bohrs-Radians)
 Second derivative matrix not updated -- analytic derivatives used.
 The second derivative matrix:
                          R1        R2        R3        A1        A2
           R1           1.09038
           R2           0.03963   0.36225
           R3           0.03963   0.00572   0.36225
           A1           0.02107   0.00269  -0.01251   0.13390
           A2           0.02107  -0.01251   0.00269  -0.08425   0.13390
           A3          -0.04215   0.00982   0.00982  -0.04965  -0.04965
           D1           0.00000   0.00000   0.00000   0.00000   0.00000
                          A3        D1
           A3           0.09930
           D1           0.00000   0.08383
     Eigenvalues ---    0.08383   0.14430   0.21650   0.35819   0.36564
     Eigenvalues ---    1.097351000.00000
 Angle between quadratic step and forces=  41.41 degrees.
 Linear search not attempted -- first point.
 Iteration  1 RMS(Cart)=  0.00007209 RMS(Int)=  0.00000001
 Iteration  2 RMS(Cart)=  0.00000000 RMS(Int)=  0.00000000
 ClnCor:  largest displacement from symmetrization is 9.86D-09 for atom     2.
 Variable       Old X    -DE/DX   Delta X   Delta X   Delta X     New X
                                 (Linear)    (Quad)   (Total)
    R1        2.23795   0.00015   0.00000   0.00014   0.00014   2.23809
    R2        2.06282   0.00002   0.00000   0.00005   0.00005   2.06287
    R3        2.06282   0.00002   0.00000   0.00005   0.00005   2.06287
    A1        2.13215  -0.00001   0.00000  -0.00007  -0.00007   2.13208
    A2        2.13215  -0.00001   0.00000  -0.00007  -0.00007   2.13208
    A3        2.01889   0.00002   0.00000   0.00014   0.00014   2.01903
    D1        3.14159   0.00000   0.00000   0.00000   0.00000   3.14159
         Item               Value     Threshold  Converged?
 Maximum Force            0.000146     0.000450     YES
 RMS     Force            0.000057     0.000300     YES
 Maximum Displacement     0.000097     0.001800     YES
 RMS     Displacement     0.000072     0.001200     YES
 Predicted change in Energy=-1.288097D-08
 Optimization completed.
    -- Stationary point found.
                           ----------------------------
                           !   Optimized Parameters   !
                           ! (Angstroms and Degrees)  !
 --------------------------                            --------------------------
 ! Name  Definition              Value          Derivative Info.                !
 --------------------------------------------------------------------------------
 ! R1    R(1,2)                  1.1843         -DE/DX =    0.0001              !
 ! R2    R(2,3)                  1.0916         -DE/DX =    0.0                 !
 ! R3    R(2,4)                  1.0916         -DE/DX =    0.0                 !
 ! A1    A(1,2,3)              122.1629         -DE/DX =    0.0                 !
 ! A2    A(1,2,4)              122.1629         -DE/DX =    0.0                 !
 ! A3    A(3,2,4)              115.6741         -DE/DX =    0.0                 !
 ! D1    D(1,2,4,3)            180.0            -DE/DX =    0.0                 !
 --------------------------------------------------------------------------------
 GradGradGradGradGradGradGradGradGradGradGradGradGradGradGradGradGradGrad

 1|1|UNPC-CB217-2014-05|Freq|RHF|6-31G(d)|C1H2O1|KE7KTO|03-Feb-2015|0||
 #N Geom=AllCheck Guess=TCheck SCRF=Check GenChk RHF/6-31G(d) Freq||Tit
 le Card Required||0,1|O,-3.9271018532,-0.7183675539,-0.4920576831|C,-3
 .7324828002,-1.6275968139,0.2413791715|H,-3.6067921281,-2.649678074,-0
 .1207509179|H,-3.6671855184,-1.4977808972,1.3232620403||Version=IA32W-
 G09RevA.02|State=1-A1|HF=-113.8663312|RMSD=8.029e-010|RMSF=5.927e-005|
 ZeroPoint=0.0292047|Thermal=0.0320577|Dipole=0.1723649,-0.8052616,0.64
 95706|DipoleDeriv=-0.4244623,0.0877018,-0.0651424,0.0877018,-0.8550231
 ,0.2552382,-0.0651424,0.2552382,-0.7459852,0.3037588,-0.1273717,0.0749
 549,-0.1273717,1.0679937,-0.1066564,0.0749549,-0.1066564,1.029183,0.05
 93836,0.0305985,0.0034387,0.0320611,-0.1927576,-0.084248,0.0062496,-0.
 1028921,-0.0543583,0.0613199,0.0090714,-0.0132512,0.0076088,-0.0202129
 ,-0.0643337,-0.0160621,-0.0456897,-0.2288394|Polar=6.7860944,-1.539828
 5,15.5595549,0.9720134,-2.1742587,14.6897178|PolarDeriv=-1.5439459,3.1
 270341,-0.0983765,-2.5565088,0.4994751,0.0845067,1.0013044,-0.733093,6
 .3860824,0.2766948,-4.9006201,-0.1095195,-0.8163489,0.1579202,-0.91295
 18,-0.8006684,4.8654426,-4.1414477,0.8772872,-1.5623043,-0.6639262,1.3
 672651,-0.8419446,-0.7068619,-0.823405,-0.2529382,2.1795923,-0.5285183
 ,5.7638395,0.9493706,0.7354583,-0.361416,1.9700464,0.0564926,-3.798071
 6,-4.5653008,0.4708139,-1.9581109,0.6108299,-0.8632407,0.2406753,0.231
 8185,-0.387685,0.7588913,-8.6369823,0.203157,-2.6767594,-1.2563969,-0.
 3166165,0.1525927,-1.5535378,0.3536018,-2.3445888,-1.1459993,0.1958448
 ,0.3933811,0.1514729,2.0524843,0.1017942,0.3905367,0.2097856,0.2271399
 ,0.0713077,0.0486664,1.81354,0.4165459,0.3975071,0.0509031,0.4964432,0
 .3905739,1.2772178,9.8527478|HyperPolar=1.7598903,-3.3410314,6.4159436
 ,-50.6103636,2.2179735,0.9253346,-5.7656098,4.5993771,-5.7323588,51.69
 20005|PG=C02V [C2(C1O1),SGV(H2)]|NImag=0||0.05217446,-0.13593252,0.677
 04508,0.10697556,-0.47632837,0.47149278,-0.09593426,0.11787881,-0.0927
 8109,0.24352748,0.11787881,-0.63771906,0.41324482,-0.13839057,1.001619
 72,-0.09278109,0.41324482,-0.45938570,0.09166146,-0.25321452,0.8972711
 3,0.02155312,0.01392692,-0.00184520,-0.07482887,0.02259116,0.01110869,
 0.02942332,0.01188614,-0.04878119,0.01202724,0.02243175,-0.27393229,-0
 .10158630,-0.03800678,0.32396347,-0.00576747,0.03804231,0.02339141,0.0
 1080231,-0.09955419,-0.12592850,-0.00697955,0.09155587,0.11123344,0.02
 220668,0.00412679,-0.01234927,-0.07276434,-0.00207940,-0.00998906,0.02
 385243,0.00368888,0.00194472,0.02670524,0.00616757,0.00945516,0.051056
 32,-0.00191999,-0.08996837,-0.05844400,0.00148869,-0.00125000,-0.03004
 399,-0.00573627,0.08176321,-0.00842700,0.02504124,-0.03549850,-0.00968
 268,-0.06047611,-0.31195694,-0.00228393,-0.00199681,-0.00869636,0.0203
 9361,0.03743167,0.35615179||0.00002406,-0.00011240,0.00009066,-0.00002
 279,0.00010648,-0.00008589,-0.00000151,0.00001978,0.00001870,0.0000002
 5,-0.00001386,-0.00002347|||@


 THE CAUTIOUS SELDOM ERR...CONFUCIUS                   
 Job cpu time:  0 days  0 hours  0 minutes  3.0 seconds.
 File lengths (MBytes):  RWF=      5 Int=      0 D2E=      0 Chk=      1 Scr=      1
 Normal termination of Gaussian 09 at Tue Feb 03 18:19:12 2015.
