 Entering Link 1 = C:\G09W\l1.exe PID=     16532.
  
 Copyright (c) 1988,1990,1992,1993,1995,1998,2003,2009, Gaussian, Inc.
                  All Rights Reserved.
  
 This is part of the Gaussian(R) 09 program.  It is based on
 the Gaussian(R) 03 system (copyright 2003, Gaussian, Inc.),
 the Gaussian(R) 98 system (copyright 1998, Gaussian, Inc.),
 the Gaussian(R) 94 system (copyright 1995, Gaussian, Inc.),
 the Gaussian 92(TM) system (copyright 1992, Gaussian, Inc.),
 the Gaussian 90(TM) system (copyright 1990, Gaussian, Inc.),
 the Gaussian 88(TM) system (copyright 1988, Gaussian, Inc.),
 the Gaussian 86(TM) system (copyright 1986, Carnegie Mellon
 University), and the Gaussian 82(TM) system (copyright 1983,
 Carnegie Mellon University). Gaussian is a federally registered
 trademark of Gaussian, Inc.
  
 This software contains proprietary and confidential information,
 including trade secrets, belonging to Gaussian, Inc.
  
 This software is provided under written license and may be
 used, copied, transmitted, or stored only in accord with that
 written license.
  
 The following legend is applicable only to US Government
 contracts under FAR:
  
                    RESTRICTED RIGHTS LEGEND
  
 Use, reproduction and disclosure by the US Government is
 subject to restrictions as set forth in subparagraphs (a)
 and (c) of the Commercial Computer Software - Restricted
 Rights clause in FAR 52.227-19.
  
 Gaussian, Inc.
 340 Quinnipiac St., Bldg. 40, Wallingford CT 06492
  
  
 ---------------------------------------------------------------
 Warning -- This program may not be used in any manner that
 competes with the business of Gaussian, Inc. or will provide
 assistance to any competitor of Gaussian, Inc.  The licensee
 of this program is prohibited from giving any competitor of
 Gaussian, Inc. access to this program.  By using this program,
 the user acknowledges that Gaussian, Inc. is engaged in the
 business of creating and licensing software in the field of
 computational chemistry and represents and warrants to the
 licensee that it is not a competitor of Gaussian, Inc. and that
 it will not use this program in any manner prohibited above.
 ---------------------------------------------------------------
  

 Cite this work as:
 Gaussian 09, Revision A.02,
 M. J. Frisch, G. W. Trucks, H. B. Schlegel, G. E. Scuseria, 
 M. A. Robb, J. R. Cheeseman, G. Scalmani, V. Barone, B. Mennucci, 
 G. A. Petersson, H. Nakatsuji, M. Caricato, X. Li, H. P. Hratchian, 
 A. F. Izmaylov, J. Bloino, G. Zheng, J. L. Sonnenberg, M. Hada, 
 M. Ehara, K. Toyota, R. Fukuda, J. Hasegawa, M. Ishida, T. Nakajima, 
 Y. Honda, O. Kitao, H. Nakai, T. Vreven, J. A. Montgomery, Jr., 
 J. E. Peralta, F. Ogliaro, M. Bearpark, J. J. Heyd, E. Brothers, 
 K. N. Kudin, V. N. Staroverov, R. Kobayashi, J. Normand, 
 K. Raghavachari, A. Rendell, J. C. Burant, S. S. Iyengar, J. Tomasi, 
 M. Cossi, N. Rega, J. M. Millam, M. Klene, J. E. Knox, J. B. Cross, 
 V. Bakken, C. Adamo, J. Jaramillo, R. Gomperts, R. E. Stratmann, 
 O. Yazyev, A. J. Austin, R. Cammi, C. Pomelli, J. W. Ochterski, 
 R. L. Martin, K. Morokuma, V. G. Zakrzewski, G. A. Voth, 
 P. Salvador, J. J. Dannenberg, S. Dapprich, A. D. Daniels, 
 O. Farkas, J. B. Foresman, J. V. Ortiz, J. Cioslowski, 
 and D. J. Fox, Gaussian, Inc., Wallingford CT, 2009.
 
 ******************************************
 Gaussian 09:  IA32W-G09RevA.02 11-Jun-2009
                03-Mar-2015 
 ******************************************
 %chk=J:\che513\mediumProject\HNH exam.chk
 --------------------------------------
 # freq uhf/6-311g(d) geom=connectivity
 --------------------------------------
 1/10=4,30=1,38=1,57=2/1,3;
 2/12=2,17=6,18=5,40=1/2;
 3/5=4,6=6,7=1,11=2,16=1,25=1,30=1,71=2,116=2/1,2,3;
 4//1;
 5/5=2,38=5,98=1/2;
 8/6=4,10=90,11=11/1;
 10/13=10,15=4/2;
 11/6=3,8=1,9=11,15=111,16=1/1,2,10;
 10/6=1/2;
 6/7=2,8=2,9=2,10=2,18=1,28=1/1;
 7/8=1,10=1,25=1/1,2,3,16;
 1/10=4,30=1/3;
 99//99;
 -------------------
 Title Card Required
 -------------------
 Symbolic Z-matrix:
 Charge =  0 Multiplicity = 2
 H                     0.       -0.86603  -0.38889 
 H                     0.        0.86603  -0.38889 
 N                     0.        0.        0.11111 
 

 GradGradGradGradGradGradGradGradGradGradGradGradGradGradGradGradGradGrad
 Berny optimization.
 Initialization pass.
 Trust Radius=3.00D-01 FncErr=1.00D-07 GrdErr=1.00D-07
 Number of steps in this run=   2 maximum allowed number of steps=   2.
 GradGradGradGradGradGradGradGradGradGradGradGradGradGradGradGradGradGrad

                          Input orientation:                          
 ---------------------------------------------------------------------
 Center     Atomic      Atomic             Coordinates (Angstroms)
 Number     Number       Type             X           Y           Z
 ---------------------------------------------------------------------
      1          1           0        0.000000   -0.866025   -0.388889
      2          1           0        0.000000    0.866025   -0.388889
      3          7           0        0.000000    0.000000    0.111111
 ---------------------------------------------------------------------
                    Distance matrix (angstroms):
                    1          2          3
     1  H    0.000000
     2  H    1.732050   0.000000
     3  N    1.000000   1.000000   0.000000
 Stoichiometry    H2N(2)
 Framework group  C2V[C2(N),SGV(H2)]
 Deg. of freedom     2
 Full point group                 C2V     NOp   4
 Largest Abelian subgroup         C2V     NOp   4
 Largest concise Abelian subgroup C2      NOp   2
                         Standard orientation:                         
 ---------------------------------------------------------------------
 Center     Atomic      Atomic             Coordinates (Angstroms)
 Number     Number       Type             X           Y           Z
 ---------------------------------------------------------------------
      1          1           0        0.000000    0.866025   -0.388889
      2          1           0        0.000000   -0.866025   -0.388889
      3          7           0        0.000000    0.000000    0.111111
 ---------------------------------------------------------------------
 Rotational constants (GHZ):   1147.2725041    334.3037119    258.8712295
 Standard basis: 6-311G(d) (5D, 7F)
 There are    12 symmetry adapted basis functions of A1  symmetry.
 There are     1 symmetry adapted basis functions of A2  symmetry.
 There are     4 symmetry adapted basis functions of B1  symmetry.
 There are     7 symmetry adapted basis functions of B2  symmetry.
 Integral buffers will be    262144 words long.
 Raffenetti 2 integral format.
 Two-electron integral symmetry is turned on.
    24 basis functions,    42 primitive gaussians,    25 cartesian basis functions
     5 alpha electrons        4 beta electrons
       nuclear repulsion energy         7.7140042572 Hartrees.
 NAtoms=    3 NActive=    3 NUniq=    2 SFac= 1.69D+00 NAtFMM=   80 NAOKFM=F Big=F
 One-electron integrals computed using PRISM.
 NBasis=    24 RedAO= T  NBF=    12     1     4     7
 NBsUse=    24 1.00D-06 NBFU=    12     1     4     7
 Harris functional with IExCor=  205 diagonalized for initial guess.
 ExpMin= 1.03D-01 ExpMax= 6.29D+03 ExpMxC= 9.49D+02 IAcc=1 IRadAn=         1 AccDes= 0.00D+00
 HarFok:  IExCor=  205 AccDes= 0.00D+00 IRadAn=         1 IDoV= 1
 ScaDFX=  1.000000  1.000000  1.000000  1.000000
 FoFCou: FMM=F IPFlag=           0 FMFlag=      100000 FMFlg1=           0
         NFxFlg=           0 DoJE=T BraDBF=F KetDBF=T FulRan=T
         Omega=  0.000000  0.000000  1.000000  0.000000  0.000000 ICntrl=     500 IOpCl=  0
         NMat0=    1 NMatS0=    1 NMatT0=    0 NMatD0=    1 NMtDS0=    0 NMtDT0=    0
         I1Cent=           4 NGrid=           0.
 Petite list used in FoFCou.
 Initial guess orbital symmetries:
 Alpha Orbitals:
       Occupied  (A1) (A1) (B2) (A1) (B1)
       Virtual   (A1) (B2) (A1) (B2) (A1) (B1) (B2) (A1) (A1) (A2)
                 (B2) (A1) (B1) (A1) (B2) (B1) (A1) (B2) (A1)
 Beta  Orbitals:
       Occupied  (A1) (A1) (B2) (A1)
       Virtual   (B1) (A1) (B2) (A1) (B2) (A1) (B1) (B2) (A1) (A1)
                 (A2) (B2) (A1) (B1) (A1) (B2) (B1) (A1) (B2) (A1)
 The electronic state of the initial guess is 2-B1.
 Initial guess <Sx>= 0.0000 <Sy>= 0.0000 <Sz>= 0.5000 <S**2>= 0.7500 S= 0.5000
 Requested convergence on RMS density matrix=1.00D-08 within 128 cycles.
 Requested convergence on MAX density matrix=1.00D-06.
 Requested convergence on             energy=1.00D-06.
 No special actions if energy rises.
 Keep R1 and R2 ints in memory in canonical form, NReq=946318.
 SCF Done:  E(UHF) =  -55.5656145651     A.U. after   12 cycles
             Convg  =    0.8874D-08             -V/T =  1.9984
 <Sx>= 0.0000 <Sy>= 0.0000 <Sz>= 0.5000 <S**2>= 0.7580 S= 0.5040
 <L.S>= 0.000000000000E+00
 Annihilation of the first spin contaminant:
 S**2 before annihilation     0.7580,   after     0.7500
 Range of M.O.s used for correlation:     1    24
 NBasis=    24 NAE=     5 NBE=     4 NFC=     0 NFV=     0
 NROrb=     24 NOA=     5 NOB=     4 NVA=    19 NVB=    20
          Differentiating once with respect to electric field.
                with respect to dipole field.
          Electric field/nuclear overlap derivatives assumed to be zero.
          Keep R1 and R2 ints in memory in canonical form, NReq=926293.
          There are     3 degrees of freedom in the 1st order CPHF.  IDoFFX=0.
      3 vectors produced by pass  0 Test12= 5.83D-15 3.33D-08 XBig12= 3.85D+00 7.87D-01.
 AX will form     3 AO Fock derivatives at one time.
      3 vectors produced by pass  1 Test12= 5.83D-15 3.33D-08 XBig12= 9.15D-02 1.60D-01.
      3 vectors produced by pass  2 Test12= 5.83D-15 3.33D-08 XBig12= 1.11D-02 6.84D-02.
      3 vectors produced by pass  3 Test12= 5.83D-15 3.33D-08 XBig12= 3.95D-04 1.19D-02.
      3 vectors produced by pass  4 Test12= 5.83D-15 3.33D-08 XBig12= 1.10D-05 1.57D-03.
      3 vectors produced by pass  5 Test12= 5.83D-15 3.33D-08 XBig12= 4.49D-07 2.72D-04.
      3 vectors produced by pass  6 Test12= 5.83D-15 3.33D-08 XBig12= 7.43D-09 2.62D-05.
      3 vectors produced by pass  7 Test12= 5.83D-15 3.33D-08 XBig12= 8.91D-11 2.98D-06.
      3 vectors produced by pass  8 Test12= 5.83D-15 3.33D-08 XBig12= 3.13D-12 5.42D-07.
      1 vectors produced by pass  9 Test12= 5.83D-15 3.33D-08 XBig12= 3.24D-14 8.61D-08.
 Inverted reduced A of dimension    28 with in-core refinement.
 End of Minotr Frequency-dependent properties file   721 does not exist.
 End of Minotr Frequency-dependent properties file   722 does not exist.
 Symmetrizing basis deriv contribution to polar:
 IMax=3 JMax=2 DiffMx= 0.00D+00
 G2DrvN: will do     4 centers at a time, making    1 passes doing MaxLOS=2.
 Calling FoFCou, ICntrl=  3107 FMM=F I1Cent=   0 AccDes= 0.00D+00.
 FoFDir/FoFCou used for L=0 through L=2.
 End of G2Drv Frequency-dependent properties file   721 does not exist.
 End of G2Drv Frequency-dependent properties file   722 does not exist.
          IDoAtm=111
          Differentiating once with respect to electric field.
                with respect to dipole field.
          Differentiating once with respect to nuclear coordinates.
          Keep R1 and R2 ints in memory in canonical form, NReq=926328.
          There are     9 degrees of freedom in the 1st order CPHF.  IDoFFX=4.
 Will reuse    3 saved solutions.
      6 vectors produced by pass  0 Test12= 1.94D-15 1.11D-08 XBig12= 6.09D-02 9.32D-02.
 AX will form     6 AO Fock derivatives at one time.
      6 vectors produced by pass  1 Test12= 1.94D-15 1.11D-08 XBig12= 2.42D-03 2.04D-02.
      6 vectors produced by pass  2 Test12= 1.94D-15 1.11D-08 XBig12= 9.95D-05 5.76D-03.
      6 vectors produced by pass  3 Test12= 1.94D-15 1.11D-08 XBig12= 4.50D-06 1.12D-03.
      6 vectors produced by pass  4 Test12= 1.94D-15 1.11D-08 XBig12= 9.98D-08 1.67D-04.
      6 vectors produced by pass  5 Test12= 1.94D-15 1.11D-08 XBig12= 4.94D-10 1.08D-05.
      6 vectors produced by pass  6 Test12= 1.94D-15 1.11D-08 XBig12= 6.78D-12 1.15D-06.
      3 vectors produced by pass  7 Test12= 1.94D-15 1.11D-08 XBig12= 7.03D-14 1.05D-07.
      2 vectors produced by pass  8 Test12= 1.94D-15 1.11D-08 XBig12= 1.81D-15 1.81D-08.
 Inverted reduced A of dimension    47 with in-core refinement.
 Isotropic polarizability for W=    0.000000        7.04 Bohr**3.
 End of Minotr Frequency-dependent properties file   721 does not exist.
 End of Minotr Frequency-dependent properties file   722 does not exist.

 **********************************************************************

            Population analysis using the SCF density.

 **********************************************************************

 Orbital symmetries:
 Alpha Orbitals:
       Occupied  (A1) (A1) (B2) (B1) (A1)
       Virtual   (A1) (B2) (A1) (B2) (B1) (A1) (B2) (A1) (A1) (A2)
                 (B2) (B1) (A1) (A1) (B2) (B1) (A1) (B2) (A1)
 Beta  Orbitals:
       Occupied  (A1) (A1) (B2) (A1)
       Virtual   (B1) (A1) (B2) (A1) (B2) (A1) (B1) (B2) (A1) (A1)
                 (B2) (A2) (A1) (B1) (A1) (B2) (B1) (A1) (B2) (A1)
 The electronic state is 2-B1.
 Alpha  occ. eigenvalues --  -15.57099  -1.15966  -0.68278  -0.50442  -0.47274
 Alpha virt. eigenvalues --    0.15462   0.21633   0.53013   0.56536   0.75643
 Alpha virt. eigenvalues --    0.81719   0.95876   1.13641   2.13937   2.17597
 Alpha virt. eigenvalues --    2.17681   2.22642   2.23418   2.94535   3.14678
 Alpha virt. eigenvalues --    4.05724   4.21910   4.50529  36.63401
  Beta  occ. eigenvalues --  -15.53919  -1.03750  -0.66107  -0.42778
  Beta virt. eigenvalues --    0.14173   0.16549   0.22181   0.55519   0.56773
  Beta virt. eigenvalues --    0.83786   0.91728   0.97921   1.18178   2.16687
  Beta virt. eigenvalues --    2.18100   2.28551   2.31397   2.33516   2.98135
  Beta virt. eigenvalues --    3.15750   4.17169   4.24005   4.52729  36.65441
          Condensed to atoms (all electrons):
              1          2          3
     1  H    0.398270  -0.029605   0.300732
     2  H   -0.029605   0.398270   0.300732
     3  N    0.300732   0.300732   7.059741
 Mulliken atomic charges:
              1
     1  H    0.330603
     2  H    0.330603
     3  N   -0.661205
 Sum of Mulliken atomic charges =   0.00000
 Mulliken charges with hydrogens summed into heavy atoms:
              1
     3  N    0.000000
 Sum of Mulliken charges with hydrogens summed into heavy atoms =   0.00000
          Atomic-Atomic Spin Densities.
              1          2          3
     1  H   -0.051027   0.004417  -0.023455
     2  H    0.004417  -0.051027  -0.023455
     3  N   -0.023455  -0.023455   1.187041
 Mulliken atomic spin densities:
              1
     1  H   -0.070065
     2  H   -0.070065
     3  N    1.140130
 Sum of Mulliken atomic spin densities =   1.00000
 APT atomic charges:
              1
     1  H    0.219516
     2  H    0.219516
     3  N   -0.439032
 Sum of APT charges=   0.00000
 APT Atomic charges with hydrogens summed into heavy atoms:
              1
     1  H    0.000000
     2  H    0.000000
     3  N    0.000000
 Sum of APT charges=   0.00000
 Electronic spatial extent (au):  <R**2>=             21.2361
 Charge=              0.0000 electrons
 Dipole moment (field-independent basis, Debye):
    X=              0.0000    Y=              0.0000    Z=             -1.9459  Tot=              1.9459
 Quadrupole moment (field-independent basis, Debye-Ang):
   XX=             -6.9234   YY=             -4.7154   ZZ=             -7.8517
   XY=              0.0000   XZ=              0.0000   YZ=              0.0000
 Traceless Quadrupole moment (field-independent basis, Debye-Ang):
   XX=             -0.4266   YY=              1.7814   ZZ=             -1.3549
   XY=              0.0000   XZ=              0.0000   YZ=              0.0000
 Octapole moment (field-independent basis, Debye-Ang**2):
  XXX=              0.0000  YYY=              0.0000  ZZZ=             -1.8504  XYY=              0.0000
  XXY=              0.0000  XXZ=             -0.4392  XZZ=              0.0000  YZZ=              0.0000
  YYZ=             -1.2879  XYZ=              0.0000
 Hexadecapole moment (field-independent basis, Debye-Ang**3):
 XXXX=             -5.7511 YYYY=             -8.0146 ZZZZ=             -9.2612 XXXY=              0.0000
 XXXZ=              0.0000 YYYX=              0.0000 YYYZ=              0.0000 ZZZX=              0.0000
 ZZZY=              0.0000 XXYY=             -2.6607 XXZZ=             -2.5082 YYZZ=             -2.7947
 XXYZ=              0.0000 YYXZ=              0.0000 ZZXY=              0.0000
 N-N= 7.714004257192D+00 E-N=-2.152864569094D+02  KE= 8.249241383174D+01
 Symmetry A1   KE= 7.681912278098D+01
 Symmetry A2   KE= 3.479291423314D-34
 Symmetry B1   KE= 1.738312579294D+00
 Symmetry B2   KE= 3.934978471460D+00
  Exact polarizability:   5.331   0.000   9.724   0.000   0.000   6.076
 Approx polarizability:   3.122   0.000   7.717   0.000   0.000   4.416
                          Isotropic Fermi Contact Couplings
        Atom                 a.u.       MegaHertz       Gauss      10(-4) cm-1
     1  H(1)              -0.02549    -113.92069     -40.64973     -37.99985
     2  H(1)              -0.02549    -113.92069     -40.64973     -37.99985
     3  N(14)              0.16853      54.45137      19.42960      18.16302
 --------------------------------------------------------
       Center         ----  Spin Dipole Couplings  ----
                      3XX-RR        3YY-RR        3ZZ-RR
 --------------------------------------------------------
     1   Atom       -0.027125      0.084003     -0.056878
     2   Atom       -0.027125      0.084003     -0.056878
     3   Atom        2.157649     -1.063872     -1.093778
 --------------------------------------------------------
                        XY            XZ            YZ
 --------------------------------------------------------
     1   Atom        0.000000      0.000000     -0.104919
     2   Atom        0.000000      0.000000      0.104919
     3   Atom        0.000000      0.000000      0.000000
 --------------------------------------------------------


 ---------------------------------------------------------------------------------
              Anisotropic Spin Dipole Couplings in Principal Axis System
 ---------------------------------------------------------------------------------

       Atom             a.u.   MegaHertz   Gauss  10(-4) cm-1        Axes

              Baa    -0.1128   -60.190   -21.477   -20.077  0.0000  0.4704  0.8824
     1 H(1)   Bbb    -0.0271   -14.473    -5.164    -4.828  1.0000  0.0000  0.0000
              Bcc     0.1399    74.663    26.641    24.905  0.0000  0.8824 -0.4704
 
              Baa    -0.1128   -60.190   -21.477   -20.077  0.0000 -0.4704  0.8824
     2 H(1)   Bbb    -0.0271   -14.473    -5.164    -4.828  1.0000  0.0000  0.0000
              Bcc     0.1399    74.663    26.641    24.905  0.0000  0.8824  0.4704
 
              Baa    -1.0938   -42.185   -15.053   -14.071  0.0000  0.0000  1.0000
     3 N(14)  Bbb    -1.0639   -41.031   -14.641   -13.687  0.0000  1.0000  0.0000
              Bcc     2.1576    83.216    29.693    27.758  1.0000  0.0000  0.0000
 

 ---------------------------------------------------------------------------------

 Calling FoFJK, ICntrl=    100127 FMM=F ISym2X=1 I1Cent= 0 IOpClX= 1 NMat=1 NMatS=1 NMatT=0.
 Full mass-weighted force constant matrix:
 Low frequencies --- -799.7779 -161.5007    0.0012    0.0013    0.0015  402.9445
 Low frequencies --- 1466.3043 3674.8807 3873.3931
 Diagonal vibrational polarizability:
        0.0000000       0.0026544       0.9542188
 Diagonal vibrational hyperpolarizability:
        0.0000000       0.0000000      -6.0679682
 Harmonic frequencies (cm**-1), IR intensities (KM/Mole), Raman scattering
 activities (A**4/AMU), depolarization ratios for plane and unpolarized
 incident light, reduced masses (AMU), force constants (mDyne/A),
 and normal coordinates:
                     1                      2                      3
                    A1                     A1                     B2
 Frequencies --  1466.3043              3674.8807              3872.4272
 Red. masses --     1.1043                 1.0384                 1.1080
 Frc consts  --     1.3988                 8.2623                 9.7896
 IR Inten    --    75.6419                 3.7350                 1.4791
 Raman Activ --     3.4834               103.3300                43.9505
 Depolar (P) --     0.6248                 0.2644                 0.7500
 Depolar (U) --     0.7691                 0.4183                 0.8571
  Atom  AN      X      Y      Z        X      Y      Z        X      Y      Z
     1   1     0.00   0.37   0.60     0.00  -0.62   0.34     0.00   0.61  -0.35
     2   1     0.00  -0.37   0.60     0.00   0.62   0.34     0.00   0.61   0.35
     3   7     0.00   0.00  -0.09     0.00   0.00  -0.05     0.00  -0.09   0.00

 -------------------
 - Thermochemistry -
 -------------------
 Temperature   298.150 Kelvin.  Pressure   1.00000 Atm.
 Atom     1 has atomic number  1 and mass   1.00783
 Atom     2 has atomic number  1 and mass   1.00783
 Atom     3 has atomic number  7 and mass  14.00307
 Molecular mass:    16.01872 amu.
 Principal axes and moments of inertia in atomic units:
                           1         2         3
     Eigenvalues --     1.57307   5.39851   6.97158
           X            0.00000   0.00000   1.00000
           Y            1.00000   0.00000   0.00000
           Z            0.00000   1.00000   0.00000
 This molecule is an asymmetric top.
 Rotational symmetry number  2.
 Rotational temperatures (Kelvin)     55.06033    16.04403    12.42384
 Rotational constants (GHZ):        1147.27250   334.30371   258.87123
 Zero-point vibrational energy      53913.4 (Joules/Mol)
                                   12.88561 (Kcal/Mol)
 Vibrational temperatures:   2109.68  5287.33  5571.55
          (Kelvin)
 
 Zero-point correction=                           0.020535 (Hartree/Particle)
 Thermal correction to Energy=                    0.023373
 Thermal correction to Enthalpy=                  0.024317
 Thermal correction to Gibbs Free Energy=         0.002399
 Sum of electronic and zero-point Energies=            -55.545080
 Sum of electronic and thermal Energies=               -55.542242
 Sum of electronic and thermal Enthalpies=             -55.541298
 Sum of electronic and thermal Free Energies=          -55.563216
 
                     E (Thermal)             CV                S
                      KCal/Mol        Cal/Mol-Kelvin    Cal/Mol-Kelvin
 Total                   14.667              6.046             46.130
 Electronic               0.000              0.000              1.377
 Translational            0.889              2.981             34.259
 Rotational               0.889              2.981             10.480
 Vibrational             12.889              0.084              0.014
                       Q            Log10(Q)             Ln(Q)
 Total Bot       0.788105D-01         -1.103416         -2.540709
 Total V=0       0.219678D+09          8.341787         19.207675
 Vib (Bot)       0.359058D-09         -9.444836        -21.747538
 Vib (V=0)       0.100085D+01          0.000367          0.000846
 Electronic      0.200000D+01          0.301030          0.693147
 Translational   0.251998D+07          6.401397         14.739762
 Rotational      0.435505D+02          1.638993          3.773921
 ***** Axes restored to original set *****
 -------------------------------------------------------------------
 Center     Atomic                   Forces (Hartrees/Bohr)
 Number     Number              X              Y              Z
 -------------------------------------------------------------------
      1        1           0.000000000    0.010134367   -0.020150151
      2        1           0.000000000   -0.010134367   -0.020150151
      3        7           0.000000000    0.000000000    0.040300303
 -------------------------------------------------------------------
 Cartesian Forces:  Max     0.040300303 RMS     0.017132109

 GradGradGradGradGradGradGradGradGradGradGradGradGradGradGradGradGradGrad
 Berny optimization.
 Search for a local minimum.
 Step number   1 out of a maximum of    2
 All quantities printed in internal units (Hartrees-Bohrs-Radians)
 Second derivative matrix not updated -- analytic derivatives used.
 The second derivative matrix:
                          X1        Y1        Z1        X2        Y2
           X1          -0.00757
           Y1           0.00000   0.39177
           Z1           0.00000   0.20309   0.15316
           X2          -0.01376   0.00000   0.00000  -0.00757
           Y2           0.00000  -0.01411   0.02727   0.00000   0.39177
           Z2           0.00000  -0.02727   0.01397   0.00000  -0.20309
           X3           0.02133   0.00000   0.00000   0.02133   0.00000
           Y3           0.00000  -0.37767  -0.23036   0.00000  -0.37767
           Z3           0.00000  -0.17582  -0.16713   0.00000   0.17582
                          Z2        X3        Y3        Z3
           Z2           0.15316
           X3           0.00000  -0.04265
           Y3           0.23036   0.00000   0.75534
           Z3          -0.16713   0.00000   0.00000   0.33426
     Eigenvalues ---    0.13105   0.67563   1.03636
 Quadratic step=3.177D-01 exceeds max=3.000D-01 adjusted using Lamda=-7.761D-03.
 Angle between NR and scaled steps=   0.26 degrees.
 Angle between quadratic step and forces=  32.50 degrees.
 ClnCor:  largest displacement from symmetrization is 9.63D-10 for atom     2.
 Linear search not attempted -- first point.
 ClnCor:  largest displacement from symmetrization is 1.93D-26 for atom     3.
 TrRot=  0.000000  0.000000  0.060399  0.000000  0.000000  0.000000
 Variable       Old X    -DE/DX   Delta X   Delta X   Delta X     New X
                                 (Linear)    (Quad)   (Total)
    X1        0.00000   0.00000   0.00000   0.00000   0.00000   0.00000
    Y1       -1.63655   0.01013   0.00000   0.13321   0.13321  -1.50334
    Z1       -0.73489  -0.02015   0.00000  -0.14565  -0.08525  -0.82014
    X2        0.00000   0.00000   0.00000   0.00000   0.00000   0.00000
    Y2        1.63655  -0.01013   0.00000  -0.13321  -0.13321   1.50334
    Z2       -0.73489  -0.02015   0.00000  -0.14565  -0.08525  -0.82014
    X3        0.00000   0.00000   0.00000   0.00000   0.00000   0.00000
    Y3        0.00000   0.00000   0.00000   0.00000   0.00000   0.00000
    Z3        0.20997   0.04030   0.00000   0.11010   0.17050   0.38047
         Item               Value     Threshold  Converged?
 Maximum Force            0.040300     0.000450     NO 
 RMS     Force            0.017132     0.000300     NO 
 Maximum Displacement     0.170499     0.001800     NO 
 RMS     Displacement     0.093746     0.001200     NO 
 Predicted change in Energy=-6.852730D-03
 GradGradGradGradGradGradGradGradGradGradGradGradGradGradGradGradGradGrad

 1|1|UNPC-CB217-2014-05|Freq|UHF|6-311G(d)|H2N1(2)|KE7KTO|03-Mar-2015|0
 ||# freq uhf/6-311g(d) geom=connectivity||Title Card Required||0,2|H,0
 .,-0.866025,-0.388889|H,0.,0.866025,-0.388889|N,0.,0.,0.111111||Versio
 n=IA32W-G09RevA.02|State=2-B1|HF=-55.5656146|S2=0.757951|S2-1=0.|S2A=0
 .750033|RMSD=8.874e-009|RMSF=1.713e-002|ZeroPoint=0.0205345|Thermal=0.
 0233727|Dipole=0.,0.,-0.7655886|DipoleDeriv=0.4051323,0.,0.,0.,0.11416
 35,-0.1372845,0.,-0.1679908,0.1392529,0.4051323,0.,0.,0.,0.1141635,0.1
 372845,0.,0.1679908,0.1392529,-0.8102645,0.,0.,0.,-0.2283269,0.,0.,0.,
 -0.2785057|Polar=5.3310541,0.,9.7242173,0.,0.,6.0755825|PolarDeriv=0.,
 -1.3422053,0.,-0.3939939,0.,0.,0.697206,0.,-6.1689444,0.,-2.5816245,-1
 .3188315,0.62895,0.,-2.8741347,0.,-2.6052365,-2.1743622,0.,1.3422053,0
 .,-0.3939939,0.,0.,-0.697206,0.,6.1689444,0.,-2.5816245,1.3188315,0.62
 895,0.,-2.8741347,0.,2.6052365,-2.1743622,0.,-0.0000013,0.,0.7879878,0
 .,0.,-0.0000007,0.,-0.0000002,0.,5.1632495,0.0000002,-1.2578994,0.,5.7
 482695,0.,-0.0000002,4.3487241|HyperPolar=0.,0.,0.,0.,-4.1728314,0.,-2
 4.8292484,0.,0.,-17.1415246|PG=C02V [C2(N1),SGV(H2)]|NImag=0||-0.00756
 678,0.,0.39177388,0.,0.20309037,0.15316064,-0.01375929,0.,0.,-0.007566
 78,0.,-0.01410628,0.02726881,0.,0.39177388,0.,-0.02726881,0.01397012,0
 .,-0.20309037,0.15316064,0.02132607,0.,0.,0.02132607,0.,0.,-0.04265214
 ,0.,-0.37766760,-0.23035917,0.,-0.37766761,0.23035918,0.,0.75533519,0.
 ,-0.17582157,-0.16713077,0.,0.17582156,-0.16713076,0.,0.,0.33426153||0
 .,-0.01013437,0.02015015,0.,0.01013437,0.02015015,0.,0.,-0.04030030|||
 @


 ROSE IS A RED
 TY COBB IS BLUE
 'CAUSE PETE JUST HIT
 NO. 4592.
 Job cpu time:  0 days  0 hours  0 minutes  8.0 seconds.
 File lengths (MBytes):  RWF=      5 Int=      0 D2E=      0 Chk=      1 Scr=      1
 Normal termination of Gaussian 09 at Tue Mar 03 10:03:52 2015.
