 Entering Link 1 = C:\G09W\l1.exe PID=    109328.
  
 Copyright (c) 1988,1990,1992,1993,1995,1998,2003,2009, Gaussian, Inc.
                  All Rights Reserved.
  
 This is part of the Gaussian(R) 09 program.  It is based on
 the Gaussian(R) 03 system (copyright 2003, Gaussian, Inc.),
 the Gaussian(R) 98 system (copyright 1998, Gaussian, Inc.),
 the Gaussian(R) 94 system (copyright 1995, Gaussian, Inc.),
 the Gaussian 92(TM) system (copyright 1992, Gaussian, Inc.),
 the Gaussian 90(TM) system (copyright 1990, Gaussian, Inc.),
 the Gaussian 88(TM) system (copyright 1988, Gaussian, Inc.),
 the Gaussian 86(TM) system (copyright 1986, Carnegie Mellon
 University), and the Gaussian 82(TM) system (copyright 1983,
 Carnegie Mellon University). Gaussian is a federally registered
 trademark of Gaussian, Inc.
  
 This software contains proprietary and confidential information,
 including trade secrets, belonging to Gaussian, Inc.
  
 This software is provided under written license and may be
 used, copied, transmitted, or stored only in accord with that
 written license.
  
 The following legend is applicable only to US Government
 contracts under FAR:
  
                    RESTRICTED RIGHTS LEGEND
  
 Use, reproduction and disclosure by the US Government is
 subject to restrictions as set forth in subparagraphs (a)
 and (c) of the Commercial Computer Software - Restricted
 Rights clause in FAR 52.227-19.
  
 Gaussian, Inc.
 340 Quinnipiac St., Bldg. 40, Wallingford CT 06492
  
  
 ---------------------------------------------------------------
 Warning -- This program may not be used in any manner that
 competes with the business of Gaussian, Inc. or will provide
 assistance to any competitor of Gaussian, Inc.  The licensee
 of this program is prohibited from giving any competitor of
 Gaussian, Inc. access to this program.  By using this program,
 the user acknowledges that Gaussian, Inc. is engaged in the
 business of creating and licensing software in the field of
 computational chemistry and represents and warrants to the
 licensee that it is not a competitor of Gaussian, Inc. and that
 it will not use this program in any manner prohibited above.
 ---------------------------------------------------------------
  

 Cite this work as:
 Gaussian 09, Revision A.02,
 M. J. Frisch, G. W. Trucks, H. B. Schlegel, G. E. Scuseria, 
 M. A. Robb, J. R. Cheeseman, G. Scalmani, V. Barone, B. Mennucci, 
 G. A. Petersson, H. Nakatsuji, M. Caricato, X. Li, H. P. Hratchian, 
 A. F. Izmaylov, J. Bloino, G. Zheng, J. L. Sonnenberg, M. Hada, 
 M. Ehara, K. Toyota, R. Fukuda, J. Hasegawa, M. Ishida, T. Nakajima, 
 Y. Honda, O. Kitao, H. Nakai, T. Vreven, J. A. Montgomery, Jr., 
 J. E. Peralta, F. Ogliaro, M. Bearpark, J. J. Heyd, E. Brothers, 
 K. N. Kudin, V. N. Staroverov, R. Kobayashi, J. Normand, 
 K. Raghavachari, A. Rendell, J. C. Burant, S. S. Iyengar, J. Tomasi, 
 M. Cossi, N. Rega, J. M. Millam, M. Klene, J. E. Knox, J. B. Cross, 
 V. Bakken, C. Adamo, J. Jaramillo, R. Gomperts, R. E. Stratmann, 
 O. Yazyev, A. J. Austin, R. Cammi, C. Pomelli, J. W. Ochterski, 
 R. L. Martin, K. Morokuma, V. G. Zakrzewski, G. A. Voth, 
 P. Salvador, J. J. Dannenberg, S. Dapprich, A. D. Daniels, 
 O. Farkas, J. B. Foresman, J. V. Ortiz, J. Cioslowski, 
 and D. J. Fox, Gaussian, Inc., Wallingford CT, 2009.
 
 ******************************************
 Gaussian 09:  IA32W-G09RevA.02 11-Jun-2009
                04-Feb-2015 
 ******************************************
 %chk=J:\che513\mediumProject\trans_opt_freq.chk
 ----------------------------------------------------
 # opt=(calcfc,ts) freq hf/6-31g(d) geom=connectivity
 ----------------------------------------------------
 1/5=1,10=4,18=20,38=1,57=2/1,3;
 2/9=110,12=2,17=6,18=5,40=1/2;
 3/5=1,6=6,7=1,11=9,16=1,25=1,30=1,71=2/1,2,3;
 4//1;
 5/5=2,38=5/2;
 8/6=4,10=90,11=11/1;
 11/6=1,8=1,9=11,15=111,16=1/1,2,10;
 10/6=1,7=6,13=1/2;
 6/7=2,8=2,9=2,10=2,28=1/1;
 7/10=1,18=20,25=1/1,2,3,16;
 1/5=1,10=4,18=20/3(2);
 2/9=110/2;
 99//99;
 2/9=110/2;
 3/5=1,6=6,7=1,11=9,16=1,25=1,30=1,71=1/1,2,3;
 4/5=5,16=3/1;
 5/5=2,38=5/2;
 7//1,2,3,16;
 1/5=1,18=20/3(-5);
 2/9=110/2;
 6/7=2,8=2,9=2,10=2,19=2,28=1/1;
 99/9=1/99;
 -------
 Get ZPE
 -------
 Symbolic Z-matrix:
 Charge =  0 Multiplicity = 1
 C                    -1.99725   0.67493   0. 
 H                    -0.90432   0.62162   0.0003 
 H                    -0.81004   1.9463    0.00002 
 O                    -3.07435   1.0298    0.00009 
 

 GradGradGradGradGradGradGradGradGradGradGradGradGradGradGradGradGradGrad
 Berny optimization.
 Initialization pass.
                           ----------------------------
                           !    Initial Parameters    !
                           ! (Angstroms and Degrees)  !
 --------------------------                            --------------------------
 ! Name  Definition              Value          Derivative Info.                !
 --------------------------------------------------------------------------------
 ! R1    R(1,2)                  1.0942         calculate D2E/DX2 analytically  !
 ! R2    R(1,4)                  1.1341         calculate D2E/DX2 analytically  !
 ! R3    R(2,3)                  1.328          calculate D2E/DX2 analytically  !
 ! A1    A(2,1,4)              164.5573         calculate D2E/DX2 analytically  !
 ! A2    A(1,2,3)               91.278          calculate D2E/DX2 analytically  !
 ! D1    D(4,1,2,3)             -0.0849         calculate D2E/DX2 analytically  !
 --------------------------------------------------------------------------------
 Trust Radius=3.00D-01 FncErr=1.00D-07 GrdErr=1.00D-07
 Number of steps in this run=  20 maximum allowed number of steps= 100.
 Search for a saddle point of order  1.
 GradGradGradGradGradGradGradGradGradGradGradGradGradGradGradGradGradGrad

                          Input orientation:                          
 ---------------------------------------------------------------------
 Center     Atomic      Atomic             Coordinates (Angstroms)
 Number     Number       Type             X           Y           Z
 ---------------------------------------------------------------------
      1          6           0       -1.997245    0.674931    0.000000
      2          1           0       -0.904318    0.621616    0.000296
      3          1           0       -0.810042    1.946299    0.000020
      4          8           0       -3.074345    1.029802    0.000087
 ---------------------------------------------------------------------
                    Distance matrix (angstroms):
                    1          2          3          4
     1  C    0.000000
     2  H    1.094227   0.000000
     3  H    1.739491   1.328034   0.000000
     4  O    1.134054   2.208084   2.442751   0.000000
 Stoichiometry    CH2O
 Framework group  C1[X(CH2O)]
 Deg. of freedom     6
 Full point group                 C1      NOp   1
 Largest Abelian subgroup         C1      NOp   1
 Largest concise Abelian subgroup C1      NOp   1
                         Standard orientation:                         
 ---------------------------------------------------------------------
 Center     Atomic      Atomic             Coordinates (Angstroms)
 Number     Number       Type             X           Y           Z
 ---------------------------------------------------------------------
      1          6           0        0.396042   -0.253564   -0.000063
      2          1           0        1.488969   -0.306879    0.000233
      3          1           0        1.583245    1.017804   -0.000043
      4          8           0       -0.681058    0.101307    0.000024
 ---------------------------------------------------------------------
 Rotational constants (GHZ):    261.4766473     36.4151162     31.9636317
 Standard basis: 6-31G(d) (6D, 7F)
 There are    34 symmetry adapted basis functions of A   symmetry.
 Integral buffers will be    262144 words long.
 Raffenetti 1 integral format.
 Two-electron integral symmetry is turned on.
    34 basis functions,    64 primitive gaussians,    34 cartesian basis functions
     8 alpha electrons        8 beta electrons
       nuclear repulsion energy        31.1736638282 Hartrees.
 NAtoms=    4 NActive=    4 NUniq=    4 SFac= 7.50D-01 NAtFMM=   80 NAOKFM=F Big=F
 One-electron integrals computed using PRISM.
 NBasis=    34 RedAO= T  NBF=    34
 NBsUse=    34 1.00D-06 NBFU=    34
 Harris functional with IExCor=  205 diagonalized for initial guess.
 ExpMin= 1.61D-01 ExpMax= 5.48D+03 ExpMxC= 8.25D+02 IAcc=1 IRadAn=         1 AccDes= 0.00D+00
 HarFok:  IExCor=  205 AccDes= 0.00D+00 IRadAn=         1 IDoV= 1
 ScaDFX=  1.000000  1.000000  1.000000  1.000000
 FoFCou: FMM=F IPFlag=           0 FMFlag=      100000 FMFlg1=           0
         NFxFlg=           0 DoJE=T BraDBF=F KetDBF=T FulRan=T
         Omega=  0.000000  0.000000  1.000000  0.000000  0.000000 ICntrl=     500 IOpCl=  0
         NMat0=    1 NMatS0=    1 NMatT0=    0 NMatD0=    1 NMtDS0=    0 NMtDT0=    0
         I1Cent=           4 NGrid=           0.
 Petite list used in FoFCou.
 Initial guess orbital symmetries:
       Occupied  (A) (A) (A) (A) (A) (A) (A) (A)
       Virtual   (A) (A) (A) (A) (A) (A) (A) (A) (A) (A) (A) (A)
                 (A) (A) (A) (A) (A) (A) (A) (A) (A) (A) (A) (A)
                 (A) (A)
 The electronic state of the initial guess is 1-A.
 Requested convergence on RMS density matrix=1.00D-08 within 128 cycles.
 Requested convergence on MAX density matrix=1.00D-06.
 Requested convergence on             energy=1.00D-06.
 No special actions if energy rises.
 Keep R1 ints in memory in canonical form, NReq=1019346.
 SCF Done:  E(RHF) =  -113.693523251     A.U. after   14 cycles
             Convg  =    0.1322D-08             -V/T =  2.0022
 Range of M.O.s used for correlation:     1    34
 NBasis=    34 NAE=     8 NBE=     8 NFC=     0 NFV=     0
 NROrb=     34 NOA=     8 NOB=     8 NVA=    26 NVB=    26
 Symmetrizing basis deriv contribution to polar:
 IMax=3 JMax=2 DiffMx= 0.00D+00
 G2DrvN: will do     5 centers at a time, making    1 passes doing MaxLOS=2.
 Calling FoFCou, ICntrl=  3107 FMM=F I1Cent=   0 AccDes= 0.00D+00.
 FoFDir/FoFCou used for L=0 through L=2.
 End of G2Drv Frequency-dependent properties file   721 does not exist.
 End of G2Drv Frequency-dependent properties file   722 does not exist.
          IDoAtm=1111
          Differentiating once with respect to nuclear coordinates.
          Keep R1 ints in memory in canonical form, NReq=997651.
          There are    15 degrees of freedom in the 1st order CPHF.  IDoFFX=5.
      9 vectors produced by pass  0 Test12= 1.39D-11 6.67D-07 XBig12= 1.27D-01 1.39D-01.
 AX will form     9 AO Fock derivatives at one time.
      9 vectors produced by pass  1 Test12= 1.39D-11 6.67D-07 XBig12= 2.24D-02 7.69D-02.
      9 vectors produced by pass  2 Test12= 1.39D-11 6.67D-07 XBig12= 8.83D-04 9.55D-03.
      9 vectors produced by pass  3 Test12= 1.39D-11 6.67D-07 XBig12= 1.59D-05 1.25D-03.
      8 vectors produced by pass  4 Test12= 1.39D-11 6.67D-07 XBig12= 1.21D-07 8.83D-05.
      4 vectors produced by pass  5 Test12= 1.39D-11 6.67D-07 XBig12= 5.89D-10 6.29D-06.
 Inverted reduced A of dimension    48 with in-core refinement.
 End of Minotr Frequency-dependent properties file   721 does not exist.
 End of Minotr Frequency-dependent properties file   722 does not exist.

 **********************************************************************

            Population analysis using the SCF density.

 **********************************************************************

 Orbital symmetries:
       Occupied  (A) (A) (A) (A) (A) (A) (A) (A)
       Virtual   (A) (A) (A) (A) (A) (A) (A) (A) (A) (A) (A) (A)
                 (A) (A) (A) (A) (A) (A) (A) (A) (A) (A) (A) (A)
                 (A) (A)
 The electronic state is 1-A.
 Alpha  occ. eigenvalues --  -20.67732 -11.41851  -1.52414  -0.89776  -0.75490
 Alpha  occ. eigenvalues --   -0.66678  -0.63579  -0.31868
 Alpha virt. eigenvalues --    0.11489   0.14000   0.19749   0.42936   0.68360
 Alpha virt. eigenvalues --    0.73389   0.83658   0.94998   0.99576   1.09475
 Alpha virt. eigenvalues --    1.20444   1.24986   1.31646   1.71777   1.73186
 Alpha virt. eigenvalues --    1.76366   1.78208   1.88396   2.23132   2.24316
 Alpha virt. eigenvalues --    2.84738   2.89031   3.03672   3.35431   4.29787
 Alpha virt. eigenvalues --    4.48250
          Condensed to atoms (all electrons):
              1          2          3          4
     1  C    4.941023   0.196462  -0.026260   0.620765
     2  H    0.196462   0.288365   0.137651  -0.024179
     3  H   -0.026260   0.137651   1.291120  -0.061547
     4  O    0.620765  -0.024179  -0.061547   7.793704
 Mulliken atomic charges:
              1
     1  C    0.268009
     2  H    0.401700
     3  H   -0.340965
     4  O   -0.328744
 Sum of Mulliken atomic charges =   0.00000
 Mulliken charges with hydrogens summed into heavy atoms:
              1
     1  C    0.328744
     4  O   -0.328744
 Sum of Mulliken charges with hydrogens summed into heavy atoms =   0.00000
 APT atomic charges:
              1
     1  C    0.022125
     2  H    0.528101
     3  H   -0.304054
     4  O   -0.246172
 Sum of APT charges=   0.00000
 APT Atomic charges with hydrogens summed into heavy atoms:
              1
     1  C    0.246172
     2  H    0.000000
     3  H    0.000000
     4  O   -0.246172
 Sum of APT charges=   0.00000
 Electronic spatial extent (au):  <R**2>=             70.0096
 Charge=              0.0000 electrons
 Dipole moment (field-independent basis, Debye):
    X=              0.5549    Y=             -2.4807    Z=              0.0002  Tot=              2.5420
 Quadrupole moment (field-independent basis, Debye-Ang):
   XX=            -14.3482   YY=            -15.1478   ZZ=            -11.9614
   XY=             -3.6742   XZ=              0.0006   YZ=             -0.0001
 Traceless Quadrupole moment (field-independent basis, Debye-Ang):
   XX=             -0.5291   YY=             -1.3287   ZZ=              1.8578
   XY=             -3.6742   XZ=              0.0006   YZ=             -0.0001
 Octapole moment (field-independent basis, Debye-Ang**2):
  XXX=             -8.5155  YYY=             -4.8908  ZZZ=              0.0003  XYY=             -5.9218
  XXY=             -7.2308  XXZ=              0.0013  XZZ=             -2.2228  YZZ=             -1.1568
  YYZ=              0.0003  XYZ=             -0.0002
 Hexadecapole moment (field-independent basis, Debye-Ang**3):
 XXXX=            -69.7541 YYYY=            -29.3528 ZZZZ=             -9.8975 XXXY=            -16.5441
 XXXZ=              0.0022 YYYX=             -9.0649 YYYZ=              0.0001 ZZZX=              0.0003
 ZZZY=              0.0001 XXYY=            -20.6650 XXZZ=            -12.6400 YYZZ=             -6.1783
 XXYZ=             -0.0003 YYXZ=              0.0004 ZZXY=             -2.1816
 N-N= 3.117366382819D+01 E-N=-3.293882996479D+02  KE= 1.134416746674D+02
  Exact polarizability:   0.000   0.000   0.000   0.000   0.000   0.000
 Approx polarizability:  26.528  10.076  21.406   0.000   0.000   5.833
 Calling FoFJK, ICntrl=    100147 FMM=F ISym2X=0 I1Cent= 0 IOpClX= 0 NMat=1 NMatS=1 NMatT=0.
 ***** Axes restored to original set *****
 -------------------------------------------------------------------
 Center     Atomic                   Forces (Hartrees/Bohr)
 Number     Number              X              Y              Z
 -------------------------------------------------------------------
      1        6          -0.000104236   -0.000015543    0.000036745
      2        1           0.000031672    0.000012898   -0.000022584
      3        1          -0.000004911    0.000003671    0.000004172
      4        8           0.000077475   -0.000001026   -0.000018333
 -------------------------------------------------------------------
 Cartesian Forces:  Max     0.000104236 RMS     0.000041363

 GradGradGradGradGradGradGradGradGradGradGradGradGradGradGradGradGradGrad
 Berny optimization.
 Internal  Forces:  Max     0.000073907 RMS     0.000038522
 Search for a saddle point.
 Step number   1 out of a maximum of   20
 All quantities printed in internal units (Hartrees-Bohrs-Radians)
 Swaping is turned off.
 Second derivative matrix not updated -- analytic derivatives used.
 The second derivative matrix:
                          R1        R2        R3        A1        A2
           R1           0.25547
           R2           0.07106   1.29563
           R3           0.01771   0.04174   0.05477
           A1           0.17988   0.02096  -0.06876   0.14597
           A2          -0.10819   0.16463   0.02163   0.20869  -0.01634
           D1          -0.00005   0.00000   0.00002   0.00002  -0.00007
                          D1
           D1           0.00707
     Eigenvalues ---   -0.25807   0.00707   0.05383   0.22750   0.38906
     Eigenvalues ---    1.32317
 Eigenvectors required to have negative eigenvalues:
                          A2        A1        R1        R3        R2
   1                    0.71715  -0.55957   0.36448  -0.18249  -0.08021
                          D1
   1                    0.00030
 RFO step:  Lambda0=4.313354951D-09 Lambda=-2.85527035D-08.
 Linear search not attempted -- option 19 set.
 Iteration  1 RMS(Cart)=  0.00021212 RMS(Int)=  0.00000015
 Iteration  2 RMS(Cart)=  0.00000014 RMS(Int)=  0.00000000
 Variable       Old X    -DE/DX   Delta X   Delta X   Delta X     New X
                                 (Linear)    (Quad)   (Total)
    R1        2.06779   0.00003   0.00000   0.00004   0.00004   2.06783
    R2        2.14305  -0.00007   0.00000  -0.00004  -0.00004   2.14302
    R3        2.50962   0.00000   0.00000   0.00011   0.00011   2.50973
    A1        2.87207  -0.00005   0.00000  -0.00004  -0.00004   2.87203
    A2        1.59310  -0.00001   0.00000  -0.00021  -0.00021   1.59289
    D1       -0.00148   0.00001   0.00000   0.00148   0.00148   0.00000
         Item               Value     Threshold  Converged?
 Maximum Force            0.000074     0.000450     YES
 RMS     Force            0.000039     0.000300     YES
 Maximum Displacement     0.000291     0.001800     YES
 RMS     Displacement     0.000212     0.001200     YES
 Predicted change in Energy=-1.211967D-08
 Optimization completed.
    -- Stationary point found.
                           ----------------------------
                           !   Optimized Parameters   !
                           ! (Angstroms and Degrees)  !
 --------------------------                            --------------------------
 ! Name  Definition              Value          Derivative Info.                !
 --------------------------------------------------------------------------------
 ! R1    R(1,2)                  1.0942         -DE/DX =    0.0                 !
 ! R2    R(1,4)                  1.1341         -DE/DX =   -0.0001              !
 ! R3    R(2,3)                  1.328          -DE/DX =    0.0                 !
 ! A1    A(2,1,4)              164.5573         -DE/DX =    0.0                 !
 ! A2    A(1,2,3)               91.278          -DE/DX =    0.0                 !
 ! D1    D(4,1,2,3)             -0.0849         -DE/DX =    0.0                 !
 --------------------------------------------------------------------------------
 GradGradGradGradGradGradGradGradGradGradGradGradGradGradGradGradGradGrad

                          Input orientation:                          
 ---------------------------------------------------------------------
 Center     Atomic      Atomic             Coordinates (Angstroms)
 Number     Number       Type             X           Y           Z
 ---------------------------------------------------------------------
      1          6           0       -1.997245    0.674931    0.000000
      2          1           0       -0.904318    0.621616    0.000296
      3          1           0       -0.810042    1.946299    0.000020
      4          8           0       -3.074345    1.029802    0.000087
 ---------------------------------------------------------------------
                    Distance matrix (angstroms):
                    1          2          3          4
     1  C    0.000000
     2  H    1.094227   0.000000
     3  H    1.739491   1.328034   0.000000
     4  O    1.134054   2.208084   2.442751   0.000000
 Stoichiometry    CH2O
 Framework group  C1[X(CH2O)]
 Deg. of freedom     6
 Full point group                 C1      NOp   1
 Largest Abelian subgroup         C1      NOp   1
 Largest concise Abelian subgroup C1      NOp   1
                         Standard orientation:                         
 ---------------------------------------------------------------------
 Center     Atomic      Atomic             Coordinates (Angstroms)
 Number     Number       Type             X           Y           Z
 ---------------------------------------------------------------------
      1          6           0        0.396042   -0.253564   -0.000063
      2          1           0        1.488969   -0.306879    0.000233
      3          1           0        1.583245    1.017804   -0.000043
      4          8           0       -0.681058    0.101307    0.000024
 ---------------------------------------------------------------------
 Rotational constants (GHZ):    261.4766473     36.4151162     31.9636317
 1|1|UNPC-CB217-2014-11|FTS|RHF|6-31G(d)|C1H2O1|KE7KTO|04-Feb-2015|0||#
  opt=(calcfc,ts) freq hf/6-31g(d) geom=connectivity||Get ZPE||0,1|C,-1
 .9972451,0.67493112,0.|H,-0.9043181,0.62161612,0.000296|H,-0.8100421,1
 .94629912,0.00002|O,-3.0743451,1.02980212,0.000087||Version=IA32W-G09R
 evA.02|State=1-A|HF=-113.6935233|RMSD=1.322e-009|RMSF=4.136e-005|Dipol
 e=0.2183251,-0.9759929,0.0000644|Polar=0.,0.,0.,0.,0.,0.|Quadrupole=-0
 .3933601,-0.9878501,1.3812101,-2.7316452,0.0004295,-0.0000372|PG=C01 [
 X(C1H2O1)]||@


 You don't have to suffer to be a poet.
 Adolescence is enough suffering for anyone.
                             -- John Ciardi
 Job cpu time:  0 days  0 hours  0 minutes  5.0 seconds.
 File lengths (MBytes):  RWF=      5 Int=      0 D2E=      0 Chk=      1 Scr=      1
 Normal termination of Gaussian 09 at Wed Feb 04 16:04:29 2015.
 Link1:  Proceeding to internal job step number  2.
 -----------------------------------------------------------------
 #N Geom=AllCheck Guess=TCheck SCRF=Check GenChk RHF/6-31G(d) Freq
 -----------------------------------------------------------------
 1/5=1,10=4,18=20,29=7,30=1,38=1,40=1/1,3;
 2/9=110,12=2,40=1/2;
 3/5=1,6=6,7=1,11=1,14=-4,16=1,25=1,30=1,70=2,71=2,116=1/1,2,3;
 4/5=101/1;
 5/5=2,98=1/2;
 8/6=4,10=90,11=11/1;
 10/13=10,15=4/2;
 11/6=3,8=1,9=11,15=111,16=1/1,2,10;
 10/6=1/2;
 6/7=2,8=2,9=2,10=2,18=1,28=1/1;
 7/8=1,10=1,25=1/1,2,3,16;
 1/5=1,10=4,18=20,30=1/3;
 99//99;
 -------
 Get ZPE
 -------
 Redundant internal coordinates taken from checkpoint file:
 J:\che513\mediumProject\trans_opt_freq.chk
 Charge =  0 Multiplicity = 1
 C,0,-1.9972451,0.67493112,0.
 H,0,-0.9043181,0.62161612,0.000296
 H,0,-0.8100421,1.94629912,0.00002
 O,0,-3.0743451,1.02980212,0.000087
 Recover connectivity data from disk.

 GradGradGradGradGradGradGradGradGradGradGradGradGradGradGradGradGradGrad
 Berny optimization.
 Initialization pass.
                           ----------------------------
                           !    Initial Parameters    !
                           ! (Angstroms and Degrees)  !
 --------------------------                            --------------------------
 ! Name  Definition              Value          Derivative Info.                !
 --------------------------------------------------------------------------------
 ! R1    R(1,2)                  1.0942         calculate D2E/DX2 analytically  !
 ! R2    R(1,4)                  1.1341         calculate D2E/DX2 analytically  !
 ! R3    R(2,3)                  1.328          calculate D2E/DX2 analytically  !
 ! A1    A(2,1,4)              164.5573         calculate D2E/DX2 analytically  !
 ! A2    A(1,2,3)               91.278          calculate D2E/DX2 analytically  !
 ! D1    D(4,1,2,3)             -0.0849         calculate D2E/DX2 analytically  !
 --------------------------------------------------------------------------------
 Trust Radius=3.00D-01 FncErr=1.00D-07 GrdErr=1.00D-07
 Number of steps in this run=   2 maximum allowed number of steps=   2.
 Search for a saddle point of order  1.
 GradGradGradGradGradGradGradGradGradGradGradGradGradGradGradGradGradGrad

                          Input orientation:                          
 ---------------------------------------------------------------------
 Center     Atomic      Atomic             Coordinates (Angstroms)
 Number     Number       Type             X           Y           Z
 ---------------------------------------------------------------------
      1          6           0       -1.997245    0.674931    0.000000
      2          1           0       -0.904318    0.621616    0.000296
      3          1           0       -0.810042    1.946299    0.000020
      4          8           0       -3.074345    1.029802    0.000087
 ---------------------------------------------------------------------
                    Distance matrix (angstroms):
                    1          2          3          4
     1  C    0.000000
     2  H    1.094227   0.000000
     3  H    1.739491   1.328034   0.000000
     4  O    1.134054   2.208084   2.442751   0.000000
 Stoichiometry    CH2O
 Framework group  C1[X(CH2O)]
 Deg. of freedom     6
 Full point group                 C1      NOp   1
 Largest Abelian subgroup         C1      NOp   1
 Largest concise Abelian subgroup C1      NOp   1
                         Standard orientation:                         
 ---------------------------------------------------------------------
 Center     Atomic      Atomic             Coordinates (Angstroms)
 Number     Number       Type             X           Y           Z
 ---------------------------------------------------------------------
      1          6           0        0.396042   -0.253564   -0.000063
      2          1           0        1.488969   -0.306879    0.000233
      3          1           0        1.583245    1.017804   -0.000043
      4          8           0       -0.681058    0.101307    0.000024
 ---------------------------------------------------------------------
 Rotational constants (GHZ):    261.4766473     36.4151162     31.9636317
 Standard basis: 6-31G(d) (6D, 7F)
 There are    34 symmetry adapted basis functions of A   symmetry.
 Integral buffers will be    262144 words long.
 Raffenetti 1 integral format.
 Two-electron integral symmetry is turned on.
    34 basis functions,    64 primitive gaussians,    34 cartesian basis functions
     8 alpha electrons        8 beta electrons
       nuclear repulsion energy        31.1736638282 Hartrees.
 NAtoms=    4 NActive=    4 NUniq=    4 SFac= 7.50D-01 NAtFMM=   80 NAOKFM=F Big=F
 One-electron integrals computed using PRISM.
 NBasis=    34 RedAO= T  NBF=    34
 NBsUse=    34 1.00D-06 NBFU=    34
 Initial guess read from the checkpoint file:  J:\che513\mediumProject\trans_opt_
 freq.chk
 B after Tr=     0.000000    0.000000    0.000000
         Rot=    1.000000    0.000000    0.000000    0.000000 Ang=   0.00 deg.
 Initial guess orbital symmetries:
       Occupied  (A) (A) (A) (A) (A) (A) (A) (A)
       Virtual   (A) (A) (A) (A) (A) (A) (A) (A) (A) (A) (A) (A)
                 (A) (A) (A) (A) (A) (A) (A) (A) (A) (A) (A) (A)
                 (A) (A)
 Requested convergence on RMS density matrix=1.00D-08 within 128 cycles.
 Requested convergence on MAX density matrix=1.00D-06.
 Requested convergence on             energy=1.00D-06.
 No special actions if energy rises.
 Keep R1 ints in memory in canonical form, NReq=1019346.
 SCF Done:  E(RHF) =  -113.693523251     A.U. after    1 cycles
             Convg  =    0.2593D-09             -V/T =  2.0022
 Range of M.O.s used for correlation:     1    34
 NBasis=    34 NAE=     8 NBE=     8 NFC=     0 NFV=     0
 NROrb=     34 NOA=     8 NOB=     8 NVA=    26 NVB=    26
          Differentiating once with respect to electric field.
                with respect to dipole field.
          Electric field/nuclear overlap derivatives assumed to be zero.
          Keep R1 ints in memory in canonical form, NReq=997603.
          There are     3 degrees of freedom in the 1st order CPHF.  IDoFFX=0.
      3 vectors produced by pass  0 Test12= 6.93D-15 3.33D-08 XBig12= 1.11D+01 2.78D+00.
 AX will form     3 AO Fock derivatives at one time.
      3 vectors produced by pass  1 Test12= 6.93D-15 3.33D-08 XBig12= 9.03D-01 3.67D-01.
      3 vectors produced by pass  2 Test12= 6.93D-15 3.33D-08 XBig12= 6.91D-02 1.42D-01.
      3 vectors produced by pass  3 Test12= 6.93D-15 3.33D-08 XBig12= 2.83D-03 2.35D-02.
      3 vectors produced by pass  4 Test12= 6.93D-15 3.33D-08 XBig12= 5.92D-05 3.09D-03.
      3 vectors produced by pass  5 Test12= 6.93D-15 3.33D-08 XBig12= 1.09D-06 3.56D-04.
      3 vectors produced by pass  6 Test12= 6.93D-15 3.33D-08 XBig12= 2.62D-08 4.97D-05.
      3 vectors produced by pass  7 Test12= 6.93D-15 3.33D-08 XBig12= 2.48D-10 5.54D-06.
      3 vectors produced by pass  8 Test12= 6.93D-15 3.33D-08 XBig12= 4.08D-12 5.53D-07.
      1 vectors produced by pass  9 Test12= 6.93D-15 3.33D-08 XBig12= 5.85D-14 1.10D-07.
 Inverted reduced A of dimension    28 with in-core refinement.
 End of Minotr Frequency-dependent properties file   721 does not exist.
 End of Minotr Frequency-dependent properties file   722 does not exist.
 Symmetrizing basis deriv contribution to polar:
 IMax=3 JMax=2 DiffMx= 0.00D+00
 G2DrvN: will do     5 centers at a time, making    1 passes doing MaxLOS=2.
 Calling FoFCou, ICntrl=  3107 FMM=F I1Cent=   0 AccDes= 0.00D+00.
 FoFDir/FoFCou used for L=0 through L=2.
 End of G2Drv Frequency-dependent properties file   721 does not exist.
 End of G2Drv Frequency-dependent properties file   722 does not exist.
          IDoAtm=1111
          Differentiating once with respect to electric field.
                with respect to dipole field.
          Differentiating once with respect to nuclear coordinates.
          Keep R1 ints in memory in canonical form, NReq=997651.
          There are    15 degrees of freedom in the 1st order CPHF.  IDoFFX=5.
 Will reuse    3 saved solutions.
      9 vectors produced by pass  0 Test12= 1.39D-15 6.67D-09 XBig12= 1.27D-01 1.39D-01.
 AX will form     9 AO Fock derivatives at one time.
      9 vectors produced by pass  1 Test12= 1.39D-15 6.67D-09 XBig12= 2.24D-02 7.69D-02.
      9 vectors produced by pass  2 Test12= 1.39D-15 6.67D-09 XBig12= 8.83D-04 9.55D-03.
      9 vectors produced by pass  3 Test12= 1.39D-15 6.67D-09 XBig12= 1.59D-05 1.25D-03.
      9 vectors produced by pass  4 Test12= 1.39D-15 6.67D-09 XBig12= 1.21D-07 8.83D-05.
      9 vectors produced by pass  5 Test12= 1.39D-15 6.67D-09 XBig12= 5.66D-10 6.11D-06.
      8 vectors produced by pass  6 Test12= 1.39D-15 6.67D-09 XBig12= 2.98D-12 5.14D-07.
      1 vectors produced by pass  7 Test12= 1.39D-15 6.67D-09 XBig12= 1.18D-14 3.00D-08.
 Inverted reduced A of dimension    63 with in-core refinement.
 Isotropic polarizability for W=    0.000000       19.49 Bohr**3.
 End of Minotr Frequency-dependent properties file   721 does not exist.
 End of Minotr Frequency-dependent properties file   722 does not exist.

 **********************************************************************

            Population analysis using the SCF density.

 **********************************************************************

 Orbital symmetries:
       Occupied  (A) (A) (A) (A) (A) (A) (A) (A)
       Virtual   (A) (A) (A) (A) (A) (A) (A) (A) (A) (A) (A) (A)
                 (A) (A) (A) (A) (A) (A) (A) (A) (A) (A) (A) (A)
                 (A) (A)
 The electronic state is 1-A.
 Alpha  occ. eigenvalues --  -20.67732 -11.41851  -1.52414  -0.89776  -0.75490
 Alpha  occ. eigenvalues --   -0.66678  -0.63579  -0.31868
 Alpha virt. eigenvalues --    0.11489   0.14000   0.19749   0.42936   0.68360
 Alpha virt. eigenvalues --    0.73389   0.83658   0.94998   0.99576   1.09475
 Alpha virt. eigenvalues --    1.20444   1.24986   1.31646   1.71777   1.73186
 Alpha virt. eigenvalues --    1.76366   1.78208   1.88396   2.23132   2.24316
 Alpha virt. eigenvalues --    2.84738   2.89031   3.03672   3.35431   4.29787
 Alpha virt. eigenvalues --    4.48250
          Condensed to atoms (all electrons):
              1          2          3          4
     1  C    4.941023   0.196462  -0.026260   0.620765
     2  H    0.196462   0.288365   0.137651  -0.024179
     3  H   -0.026260   0.137651   1.291120  -0.061547
     4  O    0.620765  -0.024179  -0.061547   7.793704
 Mulliken atomic charges:
              1
     1  C    0.268009
     2  H    0.401700
     3  H   -0.340965
     4  O   -0.328744
 Sum of Mulliken atomic charges =   0.00000
 Mulliken charges with hydrogens summed into heavy atoms:
              1
     1  C    0.328744
     4  O   -0.328744
 Sum of Mulliken charges with hydrogens summed into heavy atoms =   0.00000
 APT atomic charges:
              1
     1  C    0.725585
     2  H    0.464564
     3  H   -0.634784
     4  O   -0.555366
 Sum of APT charges=   0.00000
 APT Atomic charges with hydrogens summed into heavy atoms:
              1
     1  C    0.555366
     2  H    0.000000
     3  H    0.000000
     4  O   -0.555366
 Sum of APT charges=   0.00000
 Electronic spatial extent (au):  <R**2>=             70.0096
 Charge=              0.0000 electrons
 Dipole moment (field-independent basis, Debye):
    X=              0.5549    Y=             -2.4807    Z=              0.0002  Tot=              2.5420
 Quadrupole moment (field-independent basis, Debye-Ang):
   XX=            -14.3482   YY=            -15.1478   ZZ=            -11.9614
   XY=             -3.6742   XZ=              0.0006   YZ=             -0.0001
 Traceless Quadrupole moment (field-independent basis, Debye-Ang):
   XX=             -0.5291   YY=             -1.3287   ZZ=              1.8578
   XY=             -3.6742   XZ=              0.0006   YZ=             -0.0001
 Octapole moment (field-independent basis, Debye-Ang**2):
  XXX=             -8.5155  YYY=             -4.8908  ZZZ=              0.0003  XYY=             -5.9218
  XXY=             -7.2308  XXZ=              0.0013  XZZ=             -2.2228  YZZ=             -1.1568
  YYZ=              0.0003  XYZ=             -0.0002
 Hexadecapole moment (field-independent basis, Debye-Ang**3):
 XXXX=            -69.7541 YYYY=            -29.3528 ZZZZ=             -9.8975 XXXY=            -16.5441
 XXXZ=              0.0022 YYYX=             -9.0649 YYYZ=              0.0001 ZZZX=              0.0003
 ZZZY=              0.0001 XXYY=            -20.6650 XXZZ=            -12.6400 YYZZ=             -6.1783
 XXYZ=             -0.0003 YYXZ=              0.0004 ZZXY=             -2.1816
 N-N= 3.117366382819D+01 E-N=-3.293882996593D+02  KE= 1.134416746735D+02
  Exact polarizability:  28.660  11.664  23.567   0.000   0.000   6.231
 Approx polarizability:  26.528  10.076  21.406   0.000   0.000   5.833
 Calling FoFJK, ICntrl=    100127 FMM=F ISym2X=0 I1Cent= 0 IOpClX= 0 NMat=1 NMatS=1 NMatT=0.
 Full mass-weighted force constant matrix:
 Low frequencies ----2185.3680   -7.8230   -0.0021   -0.0016   -0.0012    6.7181
 Low frequencies ---    8.3128  754.3795 1058.6232
 ******    1 imaginary frequencies (negative Signs) ****** 
 Diagonal vibrational polarizability:
       35.0214469      20.7974593       0.7782634
 Diagonal vibrational hyperpolarizability:
     -312.4576969     -48.7383548       0.0106782
 Harmonic frequencies (cm**-1), IR intensities (KM/Mole), Raman scattering
 activities (A**4/AMU), depolarization ratios for plane and unpolarized
 incident light, reduced masses (AMU), force constants (mDyne/A),
 and normal coordinates:
                     1                      2                      3
                     A                      A                      A
 Frequencies -- -2185.3680               754.3795              1058.6231
 Red. masses --     1.1752                 1.2727                 1.2394
 Frc consts  --     3.3069                 0.4267                 0.8183
 IR Inten    --   644.1379               669.8949                32.4098
 Raman Activ --    56.1953                94.7498                 3.0707
 Depolar (P) --     0.1761                 0.5968                 0.7500
 Depolar (U) --     0.2995                 0.7475                 0.8571
  Atom  AN      X      Y      Z        X      Y      Z        X      Y      Z
     1   6    -0.07  -0.10   0.00    -0.02   0.12   0.00     0.00   0.00   0.13
     2   1     0.25   0.88   0.00    -0.05  -0.23   0.00     0.00   0.00  -0.97
     3   1     0.39  -0.04   0.00     0.96  -0.01   0.00     0.00   0.00   0.18
     4   8     0.01   0.02   0.00    -0.04  -0.07   0.00     0.00   0.00  -0.05
                     4                      5                      6
                     A                      A                      A
 Frequencies --  1305.8472              2147.8145              3256.7627
 Red. masses --     1.2025                 4.7030                 1.1644
 Frc consts  --     1.2081                12.7825                 7.2765
 IR Inten    --  1108.3146               503.6372                32.3959
 Raman Activ --   158.7077                37.3006                33.4591
 Depolar (P) --     0.3740                 0.0838                 0.7492
 Depolar (U) --     0.5444                 0.1546                 0.8566
  Atom  AN      X      Y      Z        X      Y      Z        X      Y      Z
     1   6     0.06   0.10   0.00     0.37  -0.16   0.00    -0.11   0.04   0.00
     2   1     0.11   0.20   0.00     0.73  -0.14   0.00     0.95  -0.27   0.00
     3   1    -0.15  -0.95   0.00     0.23   0.32   0.00    -0.10   0.02   0.00
     4   8    -0.05  -0.03   0.00    -0.34   0.11   0.00     0.03  -0.01   0.00

 -------------------
 - Thermochemistry -
 -------------------
 Temperature   298.150 Kelvin.  Pressure   1.00000 Atm.
 Atom     1 has atomic number  6 and mass  12.00000
 Atom     2 has atomic number  1 and mass   1.00783
 Atom     3 has atomic number  1 and mass   1.00783
 Atom     4 has atomic number  8 and mass  15.99491
 Molecular mass:    30.01056 amu.
 Principal axes and moments of inertia in atomic units:
                           1         2         3
     Eigenvalues --     6.90211  49.56022  56.46233
           X            0.99474   0.10240   0.00002
           Y           -0.10240   0.99474  -0.00004
           Z           -0.00002   0.00004   1.00000
 This molecule is an asymmetric top.
 Rotational symmetry number  1.
 Rotational temperatures (Kelvin)     12.54888     1.74765     1.53401
 Rotational constants (GHZ):         261.47665    36.41512    31.96363
    1 imaginary frequencies ignored.
 Zero-point vibrational energy      50981.4 (Joules/Mol)
                                   12.18485 (Kcal/Mol)
 Vibrational temperatures:   1085.38  1523.12  1878.82  3090.22  4685.75
          (Kelvin)
 
 Zero-point correction=                           0.019418 (Hartree/Particle)
 Thermal correction to Energy=                    0.022384
 Thermal correction to Enthalpy=                  0.023328
 Thermal correction to Gibbs Free Energy=        -0.002371
 Sum of electronic and zero-point Energies=           -113.674105
 Sum of electronic and thermal Energies=              -113.671140
 Sum of electronic and thermal Enthalpies=            -113.670196
 Sum of electronic and thermal Free Energies=         -113.695894
 
                     E (Thermal)             CV                S
                      KCal/Mol        Cal/Mol-Kelvin    Cal/Mol-Kelvin
 Total                   14.046              7.160             54.088
 Electronic               0.000              0.000              0.000
 Translational            0.889              2.981             36.130
 Rotational               0.889              2.981             17.608
 Vibrational             12.268              1.198              0.349
                       Q            Log10(Q)             Ln(Q)
 Total Bot       0.123196D+02          1.090596          2.511190
 Total V=0       0.105231D+11         10.022143         23.076837
 Vib (Bot)       0.121184D-08         -8.916554        -20.531124
 Vib (V=0)       0.103513D+01          0.014993          0.034522
 Electronic      0.100000D+01          0.000000          0.000000
 Translational   0.646199D+07          6.810366         15.681448
 Rotational      0.157320D+04          3.196783          7.360866
 ***** Axes restored to original set *****
 -------------------------------------------------------------------
 Center     Atomic                   Forces (Hartrees/Bohr)
 Number     Number              X              Y              Z
 -------------------------------------------------------------------
      1        6          -0.000104236   -0.000015543    0.000036745
      2        1           0.000031672    0.000012898   -0.000022584
      3        1          -0.000004911    0.000003671    0.000004172
      4        8           0.000077475   -0.000001026   -0.000018333
 -------------------------------------------------------------------
 Cartesian Forces:  Max     0.000104236 RMS     0.000041363

 GradGradGradGradGradGradGradGradGradGradGradGradGradGradGradGradGradGrad
 Berny optimization.
 Internal  Forces:  Max     0.000073907 RMS     0.000038522
 Search for a saddle point.
 Step number   1 out of a maximum of    2
 All quantities printed in internal units (Hartrees-Bohrs-Radians)
 Swaping is turned off.
 Second derivative matrix not updated -- analytic derivatives used.
 The second derivative matrix:
                          R1        R2        R3        A1        A2
           R1           0.25547
           R2           0.07106   1.29562
           R3           0.01771   0.04174   0.05477
           A1           0.17988   0.02096  -0.06876   0.14597
           A2          -0.10819   0.16463   0.02163   0.20869  -0.01634
           D1          -0.00005   0.00000   0.00002   0.00002  -0.00007
                          D1
           D1           0.00707
     Eigenvalues ---   -0.25808   0.00707   0.05383   0.22751   0.38906
     Eigenvalues ---    1.32316
 Eigenvectors required to have negative eigenvalues:
                          A2        A1        R1        R3        R2
   1                    0.71715  -0.55957   0.36447  -0.18249  -0.08021
                          D1
   1                    0.00030
 Angle between quadratic step and forces=  80.14 degrees.
 Linear search not attempted -- option 19 set.
 Iteration  1 RMS(Cart)=  0.00021212 RMS(Int)=  0.00000015
 Iteration  2 RMS(Cart)=  0.00000014 RMS(Int)=  0.00000000
 Variable       Old X    -DE/DX   Delta X   Delta X   Delta X     New X
                                 (Linear)    (Quad)   (Total)
    R1        2.06779   0.00003   0.00000   0.00004   0.00004   2.06783
    R2        2.14305  -0.00007   0.00000  -0.00004  -0.00004   2.14302
    R3        2.50962   0.00000   0.00000   0.00011   0.00011   2.50973
    A1        2.87207  -0.00005   0.00000  -0.00004  -0.00004   2.87203
    A2        1.59310  -0.00001   0.00000  -0.00021  -0.00021   1.59289
    D1       -0.00148   0.00001   0.00000   0.00148   0.00148   0.00000
         Item               Value     Threshold  Converged?
 Maximum Force            0.000074     0.000450     YES
 RMS     Force            0.000039     0.000300     YES
 Maximum Displacement     0.000291     0.001800     YES
 RMS     Displacement     0.000212     0.001200     YES
 Predicted change in Energy=-1.211952D-08
 Optimization completed.
    -- Stationary point found.
                           ----------------------------
                           !   Optimized Parameters   !
                           ! (Angstroms and Degrees)  !
 --------------------------                            --------------------------
 ! Name  Definition              Value          Derivative Info.                !
 --------------------------------------------------------------------------------
 ! R1    R(1,2)                  1.0942         -DE/DX =    0.0                 !
 ! R2    R(1,4)                  1.1341         -DE/DX =   -0.0001              !
 ! R3    R(2,3)                  1.328          -DE/DX =    0.0                 !
 ! A1    A(2,1,4)              164.5573         -DE/DX =    0.0                 !
 ! A2    A(1,2,3)               91.278          -DE/DX =    0.0                 !
 ! D1    D(4,1,2,3)             -0.0849         -DE/DX =    0.0                 !
 --------------------------------------------------------------------------------
 GradGradGradGradGradGradGradGradGradGradGradGradGradGradGradGradGradGrad

 1|1|UNPC-CB217-2014-11|Freq|RHF|6-31G(d)|C1H2O1|KE7KTO|04-Feb-2015|0||
 #N Geom=AllCheck Guess=TCheck SCRF=Check GenChk RHF/6-31G(d) Freq||Get
  ZPE||0,1|C,-1.9972451,0.67493112,0.|H,-0.9043181,0.62161612,0.000296|
 H,-0.8100421,1.94629912,0.00002|O,-3.0743451,1.02980212,0.000087||Vers
 ion=IA32W-G09RevA.02|State=1-A|HF=-113.6935233|RMSD=2.593e-010|RMSF=4.
 136e-005|ZeroPoint=0.0194178|Thermal=0.0223836|Dipole=0.2183251,-0.975
 9929,0.0000644|DipoleDeriv=2.2911649,0.6680693,-0.0000196,-0.058448,-0
 .4826116,0.0001184,-0.0001446,-0.0002737,0.368203,0.3769311,0.2387796,
 0.0000979,-0.1395332,0.8053024,-0.0000804,0.000057,-0.0000046,0.211459
 4,-0.8580499,-0.199123,-0.0000485,-0.3847135,-0.7195216,-0.0000135,-0.
 0000287,0.0001369,-0.3267811,-1.8100461,-0.7077259,-0.0000297,0.582694
 6,0.3968308,-0.0000246,0.0001163,0.0001414,-0.2528813|Polar=28.6597391
 ,11.6641972,23.5666576,0.0001898,-0.0002842,6.2314045|PolarDeriv=3.083
 0603,3.2314354,-3.2223183,-0.0035732,0.0022741,0.8999901,-3.2312371,-2
 .1491604,-20.5759406,-0.0013986,0.00068,-0.7026627,-0.0004367,-0.00027
 92,-0.0039479,-3.3274936,-6.4992719,-0.0034937,0.3548005,-4.6164721,2.
 6252556,0.0012956,-0.0005508,0.9964699,-1.3089489,-1.2728058,5.0654917
 ,0.0012778,-0.0006369,0.1051928,-0.0000287,0.0001622,0.000782,0.981705
 7,-1.1933032,0.0024163,10.3884485,3.3357669,0.6844033,0.0006411,-0.000
 8854,-0.2058388,0.9972317,5.1083639,10.6938496,0.000093,-0.0002842,-0.
 1705644,-0.0002465,-0.0006052,0.0014744,5.8836135,6.9612107,-0.0005016
 ,-13.8263093,-1.9507303,-0.0873405,0.0016365,-0.0008379,-1.6906212,3.5
 429542,-1.6863977,4.8165993,0.0000277,0.0002411,0.7680344,0.000712,0.0
 007222,0.0016915,-3.5378255,0.7313644,0.001579|HyperPolar=-6.6528906,-
 54.1154131,-19.7863243,-64.9650444,0.0072661,-0.0100411,-0.0016662,-2.
 3041086,-5.8078483,-0.0041235|PG=C01 [X(C1H2O1)]|NImag=1||1.22466622,-
 0.64489019,0.11895971,-0.00004374,-0.00003922,0.08716958,-0.26408449,0
 .16010087,-0.00004053,0.32736552,0.21885319,0.13208948,0.00004850,-0.1
 2666531,-0.09095528,-0.00009951,0.00001798,-0.05357292,0.00008275,-0.0
 0001046,0.03293176,0.12001324,0.05126381,0.00001010,-0.04256474,-0.050
 66025,0.00000078,-0.00108661,0.00126949,-0.09019511,-0.00000957,0.0103
 8234,-0.00764321,0.00000247,0.01259065,0.05325638,0.00004978,0.0000394
 6,0.00990127,-0.00002368,-0.00003164,-0.00608406,-0.00001308,0.0000027
 3,0.00112198,-1.08059497,0.43352551,0.00007417,-0.02071628,-0.04152763
 ,0.00001598,-0.07636189,-0.02424248,-0.00001302,1.17767314,0.42476751,
 -0.16085408,0.00000030,-0.04381790,-0.03349099,-0.00000999,-0.01319421
 ,0.04458194,-0.00001054,-0.36775540,0.14976313,0.00009347,-0.00001822,
 -0.04349793,-0.00001854,-0.00000639,0.02672522,0.00000221,0.00000438,-
 0.00493919,-0.00007713,0.00002023,0.02171191||0.00010424,0.00001554,-0
 .00003674,-0.00003167,-0.00001290,0.00002258,0.00000491,-0.00000367,-0
 .00000417,-0.00007747,0.00000103,0.00001833|||@


 You don't have to suffer to be a poet.
 Adolescence is enough suffering for anyone.
                             -- John Ciardi
 Job cpu time:  0 days  0 hours  0 minutes  4.0 seconds.
 File lengths (MBytes):  RWF=      5 Int=      0 D2E=      0 Chk=      1 Scr=      1
 Normal termination of Gaussian 09 at Wed Feb 04 16:04:33 2015.
